/*--------------------------------*- C++ -*----------------------------------*\
| =========                 |                                                 |
| \\      /  F ield         | OpenFOAM: The Open Source CFD Toolbox           |
|  \\    /   O peration     | Version:  2212                                  |
|   \\  /    A nd           | Website:  www.openfoam.com                      |
|    \\/     M anipulation  |                                                 |
\*---------------------------------------------------------------------------*/
FoamFile
{
    version     2.0;
    format      ascii;
    arch        "LSB;label=32;scalar=64";
    class       volVectorField;
    location    "0";
    object      omegaVector;
}
// * * * * * * * * * * * * * * * * * * * * * * * * * * * * * * * * * * * * * //

dimensions      [0 0 -1 0 0 0 0];

internalField   nonuniform List<vector> 
65536
(
(0 -0 1.1414e-06)
(0 -0 6.4e-06)
(0 -0 1.56127e-05)
(0 -0 2.57631e-05)
(0 -0 3.48739e-05)
(0 -0 4.29452e-05)
(0 -0 4.97529e-05)
(0 -0 5.64178e-05)
(0 -0 5.91694e-05)
(0 -0 6.26344e-05)
(0 -0 6.27363e-05)
(0 -0 6.34904e-05)
(0 -0 5.88637e-05)
(0 -0 5.3014e-05)
(0 -0 4.80611e-05)
(0 -0 4.01325e-05)
(0 -0 3.14904e-05)
(0 -0 2.02599e-05)
(0 -0 8.76433e-06)
(0 -0 -6.72611e-07)
(0 -0 -1.39618e-05)
(0 -0 -2.47032e-05)
(0 -0 -3.46904e-05)
(0 -0 -4.57376e-05)
(0 -0 -5.36255e-05)
(0 -0 -6.03108e-05)
(0 -0 -6.56917e-05)
(0 -0 -6.97274e-05)
(0 -0 -7.04408e-05)
(0 -0 -6.99516e-05)
(0 -0 -6.84229e-05)
(0 -0 -6.59975e-05)
(0 -0 -6.08204e-05)
(0 -0 -5.7172e-05)
(0 -0 -5.32382e-05)
(0 -0 -4.71847e-05)
(0 -0 -4.12535e-05)
(0 -0 -3.76459e-05)
(0 -0 -3.44662e-05)
(0 -0 -3.18166e-05)
(0 -0 -2.98191e-05)
(0 -0 -2.8535e-05)
(0 -0 -2.79439e-05)
(0 -0 -3.01656e-05)
(0 -0 -3.11032e-05)
(0 -0 -3.27338e-05)
(0 -0 -3.50573e-05)
(0 -0 -3.79924e-05)
(0 -0 -4.34955e-05)
(0 -0 -4.54115e-05)
(0 -0 -5.17503e-05)
(0 -0 -5.62548e-05)
(0 -0 -5.88229e-05)
(0 -0 -6.54064e-05)
(0 -0 -6.96866e-05)
(0 -0 -7.55567e-05)
(0 -0 -7.87567e-05)
(0 -0 -8.31796e-05)
(0 -0 -8.66038e-05)
(0 -0 -8.68688e-05)
(0 -0 -8.79083e-05)
(0 -0 -8.55847e-05)
(0 -0 -8.19363e-05)
(0 -0 -7.90013e-05)
(0 -0 -7.07261e-05)
(0 -0 -6.33885e-05)
(0 -0 -5.30752e-05)
(0 -0 -3.99694e-05)
(0 -0 -2.8372e-05)
(0 -0 -1.44713e-05)
(0 -0 -2.56815e-06)
(0 -0 1.11694e-05)
(0 -0 2.24204e-05)
(0 -0 3.30599e-05)
(0 -0 4.29045e-05)
(0 -0 4.97529e-05)
(0 -0 5.5521e-05)
(0 -0 5.81299e-05)
(0 -0 5.95363e-05)
(0 -0 5.77019e-05)
(0 -0 5.05885e-05)
(0 -0 4.43516e-05)
(0 -0 3.49758e-05)
(0 -0 2.45605e-05)
(0 -0 5.07516e-06)
(0 -0 5.15669e-06)
(0 -0 4.52484e-06)
(0 -0 -3.7442e-05)
(0 -0 -5.94955e-05)
(0 -0 -6.15134e-05)
(0 -0 -6.37758e-05)
(0 -0 -8.65427e-05)
(0 -0 -8.89274e-05)
(0 -0 -0.000132036)
(0 -0 -0.000134217)
(0 -0 -0.000136173)
(0 -0 -0.000158186)
(0 -0 -0.000159409)
(0 -0 -0.000160224)
(0 -0 -0.000180953)
(0 -0 -0.00018079)
(0 -0 -0.000180097)
(0 -0 -0.000199236)
(0 -0 -0.00017708)
(0 -0 -0.0001952)
(0 -0 -0.000212871)
(0 -0 -0.000189391)
(0 -0 -0.000206369)
(0 -0 -0.000202721)
(0 -0 -0.00019895)
(0 -0 -0.000215582)
(0 -0 -0.000212015)
(0 -0 -0.000208713)
(0 -0 -0.000226038)
(0 -0 -0.000223368)
(0 -0 -0.000241794)
(0 -0 -0.000240469)
(0 -0 -0.000259811)
(0 -0 -0.000259068)
(0 -0 -0.000258884)
(0 -0 -0.000259345)
(0 -0 -0.000259948)
(0 -0 -0.000260036)
(0 -0 -0.000239148)
(0 -0 -0.000218087)
(0 -0 -0.000196985)
(0 -0 -0.00015502)
(0 -0 -0.000132574)
(0 -0 -8.89608e-05)
(0 -0 -2.41685e-05)
(0 -0 2.14991e-05)
(0 -0 8.89029e-05)
(0 -0 0.000136216)
(0 -0 0.000162087)
(0 -0 0.000207119)
(0 -0 0.00025173)
(0 -0 0.000255348)
(0 -0 0.000257967)
(0 -0 0.000279319)
(0 -0 0.000257977)
(0 -0 0.000213585)
(0 -0 0.000165055)
(0 -0 9.08841e-05)
(0 -0 1.18828e-05)
(0 -0 -4.91822e-05)
(0 -0 -0.000129101)
(0 -0 -0.000162629)
(0 -0 -0.000167806)
(0 -0 -0.000144876)
(0 -0 -9.5735e-05)
(0 -0 -2.23389e-05)
(0 -0 7.4293e-05)
(0 -0 0.000132586)
(0 -0 0.000212239)
(0 -0 0.000248051)
(0 -0 0.000274385)
(0 -0 0.000203353)
(0 -0 0.000113692)
(0 -0 -5.21783e-05)
(0 -0 -0.000223572)
(0 -0 -0.000367796)
(0 -0 -0.000474497)
(0 -0 -0.000518889)
(0 -0 -0.000483261)
(0 -0 -0.000435954)
(0 -0 -0.000364087)
(0 -0 -0.000313783)
(0 -0 -0.000248092)
(0 -0 -0.000211791)
(0 -0 -0.000229075)
(0 -0 -0.000259975)
(0 -0 -0.000320571)
(0 -0 -0.000361824)
(0 -0 -0.000377457)
(0 -0 -0.000361457)
(0 -0 -0.000318104)
(0 -0 -0.000264703)
(0 -0 -0.000221493)
(0 -0 -0.000196627)
(0 -0 -0.000185641)
(0 -0 -0.000166624)
(0 -0 -0.000124922)
(0 -0 -4.94064e-05)
(0 -0 5.74573e-05)
(0 -0 0.000180138)
(0 -0 0.00030239)
(0 -0 0.000403791)
(0 -0 0.000463817)
(0 -0 0.000477432)
(0 -0 0.000443536)
(0 -0 0.000375134)
(0 -0 0.000288)
(0 -0 0.000200153)
(0 -0 0.000125024)
(0 -0 6.37758e-05)
(0 -0 9.53885e-06)
(0 -0 -4.67363e-05)
(0 -0 -0.000115669)
(0 -0 -0.000195913)
(0 -0 -0.000274772)
(0 -0 -0.000334451)
(0 -0 -0.000366859)
(0 -0 -0.000363251)
(0 -0 -0.000339078)
(0 -0 -0.00031095)
(0 -0 -0.000298823)
(0 -0 -0.000302716)
(0 -0 -0.000328805)
(0 -0 -0.000366655)
(0 -0 -0.000408662)
(0 -0 -0.000440255)
(0 -0 -0.000453727)
(0 -0 -0.000448)
(0 -0 -0.000416428)
(0 -0 -0.000364841)
(0 -0 -0.000288652)
(0 -0 -0.00018346)
(0 -0 -5.01197e-05)
(0 -0 9.67949e-05)
(0 -0 0.000243852)
(0 -0 0.00037122)
(0 -0 0.000463164)
(0 -0 0.000508372)
(0 -0 0.000504459)
(0 -0 0.000442211)
(0 -0 0.000322874)
(0 -0 0.000154538)
(0 -0 -4.43312e-05)
(0 -0 -0.000241896)
(0 -0 -0.000418894)
(0 -0 -0.000558492)
(0 -0 -0.000666599)
(0 -0 -0.000743766)
(0 -0 -0.000806706)
(0 -0 -0.000843699)
(0 -0 -0.000838869)
(0 -0 -0.000764066)
(0 -0 -0.000609325)
(0 -0 -0.000379108)
(0 -0 -0.000114833)
(0 -0 0.00014612)
(0 -0 0.000368448)
(0 -0 0.000537682)
(0 -0 0.000652515)
(0 -0 0.00071947)
(0 -0 0.000737936)
(0 -0 0.00070934)
(0 -0 0.000627934)
(0 -0 0.000501442)
(0 -0 0.000350981)
(0 -0 0.00020211)
(0 -0 7.8879e-05)
(0 -0 -5.23822e-06)
(0 -0 -5.00586e-05)
(0 -0 -6.48357e-05)
(0 -0 -3.42624e-05)
(0 -0 6.25732e-06)
(0 -0 2.50701e-05)
(0 -0 5.29936e-05)
(0 -0 8.23439e-05)
(0 -0 0.000109045)
(0 -0 0.000132688)
(0 -0 0.000152662)
(0 -0 0.000168764)
(0 -0 0.000179159)
(0 -0 0.000187516)
(0 -0 0.000187516)
(0 -0 0.000185682)
(0 -0 0.000173656)
(0 -0 0.000158166)
(0 -0 0.000139414)
(0 -0 0.000113529)
(0 -0 8.74395e-05)
(0 -0 5.38089e-05)
(0 -0 1.97707e-05)
(0 -0 -1.26369e-05)
(0 -0 -4.83057e-05)
(0 -0 -8.03057e-05)
(0 -0 -0.000112102)
(0 -0 -0.000140841)
(0 -0 -0.000164484)
(0 -0 -0.000184459)
(0 -0 -0.000198522)
(0 -0 -0.00020851)
(0 -0 -0.000210548)
(0 -0 -0.000209121)
(0 -0 -0.000204637)
(0 -0 -0.000195465)
(0 -0 -0.000182217)
(0 -0 -0.000169376)
(0 -0 -0.000155516)
(0 -0 -0.000139618)
(0 -0 -0.000126166)
(0 -0 -0.000113325)
(0 -0 -0.000103745)
(0 -0 -9.57962e-05)
(0 -0 -8.96815e-05)
(0 -0 -8.58089e-05)
(0 -0 -8.62166e-05)
(0 -0 -8.86624e-05)
(0 -0 -9.13121e-05)
(0 -0 -9.8242e-05)
(0 -0 -0.000104968)
(0 -0 -0.000115771)
(0 -0 -0.000126369)
(0 -0 -0.000138395)
(0 -0 -0.000151236)
(0 -0 -0.00016693)
(0 -0 -0.000178752)
(0 -0 -0.000196484)
(0 -0 -0.000209325)
(0 -0 -0.000222777)
(0 -0 -0.000234395)
(0 -0 -0.000245605)
(0 -0 -0.000255796)
(0 -0 -0.000258242)
(0 -0 -0.000257223)
(0 -0 -0.000252127)
(0 -0 -0.000240917)
(0 -0 -0.000226038)
(0 -0 -0.00020321)
(0 -0 -0.000174879)
(0 -0 -0.000144102)
(0 -0 -0.000109045)
(0 -0 -7.05223e-05)
(0 -0 -2.91465e-05)
(0 -0 8.56051e-06)
(0 -0 4.95287e-05)
(0 -0 8.47898e-05)
(0 -0 0.000116382)
(0 -0 0.000145936)
(0 -0 0.000168153)
(0 -0 0.000183236)
(0 -0 0.000195261)
(0 -0 0.000197299)
(0 -0 0.000191796)
(0 -0 0.000178955)
(0 -0 0.000162446)
(0 -0 0.000138395)
(0 -0 0.000113529)
(0 -0 7.58217e-05)
(0 -0 3.56688e-05)
(0 -0 1.36561e-05)
(0 -0 -5.09554e-05)
(0 -0 -9.64076e-05)
(0 -0 -0.000143083)
(0 -0 -0.000170191)
(0 -0 -0.000217926)
(0 -0 -0.000245401)
(0 -0 -0.000313559)
(0 -0 -0.000320082)
(0 -0 -0.000366696)
(0 -0 -0.000412433)
(0 -0 -0.000416306)
(0 -0 -0.000459618)
(0 -0 -0.00048108)
(0 -0 -0.000501075)
(0 -0 -0.000519541)
(0 -0 -0.000536357)
(0 -0 -0.00053118)
(0 -0 -0.000544938)
(0 -0 -0.000577712)
(0 -0 -0.000548178)
(0 -0 -0.000578894)
(0 -0 -0.000568275)
(0 -0 -0.00057761)
(0 -0 -0.000586782)
(0 -0 -0.000596423)
(0 -0 -0.000586538)
(0 -0 -0.000618191)
(0 -0 -0.000609916)
(0 -0 -0.000643873)
(0 -0 -0.000638899)
(0 -0 -0.000655715)
(0 -0 -0.000673325)
(0 -0 -0.000671368)
(0 -0 -0.000670594)
(0 -0 -0.000650334)
(0 -0 -0.000629809)
(0 -0 -0.000587761)
(0 -0 -0.000524456)
(0 -0 -0.000460623)
(0 -0 -0.000375258)
(0 -0 -0.000267502)
(0 -0 -0.000157952)
(0 -0 -2.69448e-05)
(0 -0 0.000105751)
(0 -0 0.000261943)
(0 -0 0.00040019)
(0 -0 0.000496917)
(0 -0 0.000610996)
(0 -0 0.000702532)
(0 -0 0.000732127)
(0 -0 0.000759704)
(0 -0 0.000741585)
(0 -0 0.000695888)
(0 -0 0.000601111)
(0 -0 0.000456397)
(0 -0 0.000281865)
(0 -0 9.8935e-05)
(0 -0 -6.87898e-05)
(0 -0 -0.000235149)
(0 -0 -0.000309992)
(0 -0 -0.000347353)
(0 -0 -0.000283536)
(0 -0 -0.000161916)
(0 -0 -8.37707e-06)
(0 -0 0.000191592)
(0 -0 0.000330986)
(0 -0 0.000465977)
(0 -0 0.000508005)
(0 -0 0.000467608)
(0 -0 0.000294115)
(0 -0 2.39287e-05)
(0 -0 -0.000336795)
(0 -0 -0.000709707)
(0 -0 -0.00103079)
(0 -0 -0.00125803)
(0 -0 -0.00133786)
(0 -0 -0.00131121)
(0 -0 -0.00119016)
(0 -0 -0.00101259)
(0 -0 -0.000856255)
(0 -0 -0.000711949)
(0 -0 -0.000627975)
(0 -0 -0.000631847)
(0 -0 -0.000685248)
(0 -0 -0.00078186)
(0 -0 -0.000867465)
(0 -0 -0.000911287)
(0 -0 -0.000891924)
(0 -0 -0.00081121)
(0 -0 -0.000699924)
(0 -0 -0.000591287)
(0 -0 -0.000500994)
(0 -0 -0.000420892)
(0 -0 -0.00032)
(0 -0 -0.000163873)
(0 -0 6.31847e-05)
(0 -0 0.000349962)
(0 -0 0.000662624)
(0 -0 0.000956535)
(0 -0 0.00118115)
(0 -0 0.0013065)
(0 -0 0.0013173)
(0 -0 0.00122069)
(0 -0 0.00103868)
(0 -0 0.000814471)
(0 -0 0.000575796)
(0 -0 0.000353019)
(0 -0 0.000146955)
(0 -0 -4.64713e-05)
(0 -0 -0.000237452)
(0 -0 -0.000437605)
(0 -0 -0.000636331)
(0 -0 -0.00080958)
(0 -0 -0.000932892)
(0 -0 -0.00098772)
(0 -0 -0.000970191)
(0 -0 -0.000909248)
(0 -0 -0.000843822)
(0 -0 -0.000808764)
(0 -0 -0.000821401)
(0 -0 -0.000878471)
(0 -0 -0.000962242)
(0 -0 -0.00104927)
(0 -0 -0.0011145)
(0 -0 -0.00113223)
(0 -0 -0.00109024)
(0 -0 -0.000979771)
(0 -0 -0.000808357)
(0 -0 -0.000576)
(0 -0 -0.000290038)
(0 -0 4.03567e-05)
(0 -0 0.000389911)
(0 -0 0.000725809)
(0 -0 0.00100097)
(0 -0 0.00118176)
(0 -0 0.0012372)
(0 -0 0.00115608)
(0 -0 0.000938395)
(0 -0 0.000593529)
(0 -0 0.000150013)
(0 -0 -0.000348127)
(0 -0 -0.000846471)
(0 -0 -0.00129794)
(0 -0 -0.00167236)
(0 -0 -0.00196056)
(0 -0 -0.00215847)
(0 -0 -0.00227322)
(0 -0 -0.0022881)
(0 -0 -0.00217396)
(0 -0 -0.00189636)
(0 -0 -0.00144815)
(0 -0 -0.000852178)
(0 -0 -0.00018507)
(0 -0 0.000472662)
(0 -0 0.00104662)
(0 -0 0.00149401)
(0 -0 0.00180382)
(0 -0 0.00197524)
(0 -0 0.00201539)
(0 -0 0.00192469)
(0 -0 0.00170945)
(0 -0 0.00139312)
(0 -0 0.00102196)
(0 -0 0.000648561)
(0 -0 0.000324484)
(0 -0 8.05096e-05)
(0 -0 -7.45987e-05)
(0 -0 -0.000151439)
(0 -0 -9.21478e-05)
(0 -0 1.57146e-05)
(0 -0 5.31975e-05)
(0 -0 0.000100892)
(0 -0 0.000149809)
(0 -0 0.000193631)
(0 -0 0.000232357)
(0 -0 0.000264764)
(0 -0 0.000288815)
(0 -0 0.000308382)
(0 -0 0.00031735)
(0 -0 0.00031735)
(0 -0 0.000306548)
(0 -0 0.000289223)
(0 -0 0.000261707)
(0 -0 0.000224611)
(0 -0 0.000179159)
(0 -0 0.000132076)
(0 -0 7.60255e-05)
(0 -0 2.11975e-05)
(0 -0 -3.97452e-05)
(0 -0 -9.53885e-05)
(0 -0 -0.000150217)
(0 -0 -0.000203618)
(0 -0 -0.000246013)
(0 -0 -0.000284943)
(0 -0 -0.00031572)
(0 -0 -0.000336102)
(0 -0 -0.000349962)
(0 -0 -0.000353427)
(0 -0 -0.000351389)
(0 -0 -0.000339975)
(0 -0 -0.00032428)
(0 -0 -0.000305121)
(0 -0 -0.000281274)
(0 -0 -0.000256204)
(0 -0 -0.000232561)
(0 -0 -0.000211363)
(0 -0 -0.000189554)
(0 -0 -0.000173656)
(0 -0 -0.000160408)
(0 -0 -0.000152459)
(0 -0 -0.000145529)
(0 -0 -0.000146344)
(0 -0 -0.000146955)
(0 -0 -0.000153274)
(0 -0 -0.000163261)
(0 -0 -0.000174675)
(0 -0 -0.000191592)
(0 -0 -0.000209121)
(0 -0 -0.000228892)
(0 -0 -0.000250701)
(0 -0 -0.000275771)
(0 -0 -0.00029921)
(0 -0 -0.000326318)
(0 -0 -0.000349758)
(0 -0 -0.000372994)
(0 -0 -0.000392764)
(0 -0 -0.000410293)
(0 -0 -0.000420688)
(0 -0 -0.000427414)
(0 -0 -0.000421707)
(0 -0 -0.000411312)
(0 -0 -0.000390522)
(0 -0 -0.000356892)
(0 -0 -0.00031735)
(0 -0 -0.000266599)
(0 -0 -0.000211363)
(0 -0 -0.000148382)
(0 -0 -8.31592e-05)
(0 -0 -1.28408e-05)
(0 -0 5.58471e-05)
(0 -0 0.000123312)
(0 -0 0.000186497)
(0 -0 0.000244586)
(0 -0 0.000292892)
(0 -0 0.000334675)
(0 -0 0.000367083)
(0 -0 0.000387873)
(0 -0 0.000397045)
(0 -0 0.000396229)
(0 -0 0.000385631)
(0 -0 0.000363414)
(0 -0 0.000329376)
(0 -0 0.000302879)
(0 -0 0.000247439)
(0 -0 0.00018772)
(0 -0 0.000124535)
(0 -0 5.84968e-05)
(0 -0 1.01911e-05)
(0 -0 -8.07134e-05)
(0 -0 -0.000152459)
(0 -0 -0.000225223)
(0 -0 -0.000298191)
(0 -0 -0.000350573)
(0 -0 -0.000402344)
(0 -0 -0.000473274)
(0 -0 -0.000542777)
(0 -0 -0.000590064)
(0 -0 -0.00065549)
(0 -0 -0.000678115)
(0 -0 -0.000738854)
(0 -0 -0.000755975)
(0 -0 -0.000791032)
(0 -0 -0.000823439)
(0 -0 -0.000833019)
(0 -0 -0.000840561)
(0 -0 -0.000846064)
(0 -0 -0.000850038)
(0 -0 -0.000853136)
(0 -0 -0.000855623)
(0 -0 -0.000857763)
(0 -0 -0.000860148)
(0 -0 -0.000843231)
(0 -0 -0.000848061)
(0 -0 -0.000833753)
(0 -0 -0.000841417)
(0 -0 -0.00083094)
(0 -0 -0.000822706)
(0 -0 -0.000836403)
(0 -0 -0.000810415)
(0 -0 -0.000806176)
(0 -0 -0.00076268)
(0 -0 -0.000699353)
(0 -0 -0.000655613)
(0 -0 -0.000570028)
(0 -0 -0.000443257)
(0 -0 -0.000336216)
(0 -0 -0.000206817)
(0 -0 -5.4614e-05)
(0 -0 9.87367e-05)
(0 -0 0.00027296)
(0 -0 0.000449529)
(0 -0 0.000630155)
(0 -0 0.000792336)
(0 -0 0.000931771)
(0 -0 0.00102638)
(0 -0 0.00111802)
(0 -0 0.00114552)
(0 -0 0.00110624)
(0 -0 0.00103792)
(0 -0 0.000938762)
(0 -0 0.000747332)
(0 -0 0.000566848)
(0 -0 0.000358604)
(0 -0 0.000145508)
(0 -0 -2.72713e-05)
(0 -0 -0.000131811)
(0 -0 -0.000179934)
(0 -0 -0.000166808)
(0 -0 -7.23567e-05)
(0 -0 3.68917e-05)
(0 -0 0.000173045)
(0 -0 0.000286777)
(0 -0 0.000330191)
(0 -0 0.00029758)
(0 -0 0.000162038)
(0 -0 -6.31847e-05)
(0 -0 -0.000403567)
(0 -0 -0.000794904)
(0 -0 -0.00118217)
(0 -0 -0.00152234)
(0 -0 -0.00175062)
(0 -0 -0.00184968)
(0 -0 -0.00181361)
(0 -0 -0.00167011)
(0 -0 -0.00145732)
(0 -0 -0.00121702)
(0 -0 -0.00102808)
(0 -0 -0.000901503)
(0 -0 -0.000843822)
(0 -0 -0.000838522)
(0 -0 -0.000904561)
(0 -0 -0.000971006)
(0 -0 -0.001024)
(0 -0 -0.00102461)
(0 -0 -0.000964076)
(0 -0 -0.000849529)
(0 -0 -0.000700739)
(0 -0 -0.000536051)
(0 -0 -0.000350573)
(0 -0 -0.000129223)
(0 -0 0.00015042)
(0 -0 0.000497325)
(0 -0 0.000895389)
(0 -0 0.00129794)
(0 -0 0.00164912)
(0 -0 0.00190145)
(0 -0 0.00201682)
(0 -0 0.00198971)
(0 -0 0.00182971)
(0 -0 0.00155985)
(0 -0 0.00122436)
(0 -0 0.000852586)
(0 -0 0.000476331)
(0 -0 0.00011149)
(0 -0 -0.000231338)
(0 -0 -0.000551541)
(0 -0 -0.000839745)
(0 -0 -0.00108617)
(0 -0 -0.00127327)
(0 -0 -0.00138476)
(0 -0 -0.00141187)
(0 -0 -0.00136561)
(0 -0 -0.00127307)
(0 -0 -0.00117197)
(0 -0 -0.00110206)
(0 -0 -0.00109126)
(0 -0 -0.00113039)
(0 -0 -0.00120214)
(0 -0 -0.00127348)
(0 -0 -0.00131118)
(0 -0 -0.00129019)
(0 -0 -0.00118482)
(0 -0 -0.000993427)
(0 -0 -0.00072214)
(0 -0 -0.000387669)
(0 -0 -1.65096e-05)
(0 -0 0.000374217)
(0 -0 0.000754548)
(0 -0 0.00108861)
(0 -0 0.00132851)
(0 -0 0.00143776)
(0 -0 0.0013811)
(0 -0 0.00115587)
(0 -0 0.000776357)
(0 -0 0.000263541)
(0 -0 -0.000345274)
(0 -0 -0.00100301)
(0 -0 -0.00165422)
(0 -0 -0.00224917)
(0 -0 -0.00274242)
(0 -0 -0.00310176)
(0 -0 -0.00331373)
(0 -0 -0.00336306)
(0 -0 -0.00324036)
(0 -0 -0.00293238)
(0 -0 -0.00243811)
(0 -0 -0.00176591)
(0 -0 -0.000956535)
(0 -0 -7.15414e-05)
(0 -0 0.0008)
(0 -0 0.00157921)
(0 -0 0.0022027)
(0 -0 0.0026454)
(0 -0 0.00289631)
(0 -0 0.00296255)
(0 -0 0.00285065)
(0 -0 0.00258242)
(0 -0 0.00219088)
(0 -0 0.00171414)
(0 -0 0.00120907)
(0 -0 0.000729478)
(0 -0 0.000321019)
(0 -0 1.89554e-05)
(0 -0 -0.000159389)
(0 -0 -0.00012052)
(0 -0 2.63338e-05)
(0 -0 8.4586e-05)
(0 -0 0.000152459)
(0 -0 0.000220739)
(0 -0 0.000281885)
(0 -0 0.000335287)
(0 -0 0.00037972)
(0 -0 0.00041335)
(0 -0 0.000437605)
(0 -0 0.000446777)
(0 -0 0.000444535)
(0 -0 0.000426599)
(0 -0 0.000399694)
(0 -0 0.000358522)
(0 -0 0.000305529)
(0 -0 0.00024214)
(0 -0 0.000169987)
(0 -0 9.43694e-05)
(0 -0 1.52866e-05)
(0 -0 -6.76688e-05)
(0 -0 -0.000146548)
(0 -0 -0.000223796)
(0 -0 -0.000294115)
(0 -0 -0.000355465)
(0 -0 -0.000405197)
(0 -0 -0.000444739)
(0 -0 -0.000473478)
(0 -0 -0.000489172)
(0 -0 -0.000494471)
(0 -0 -0.000489987)
(0 -0 -0.000474089)
(0 -0 -0.00045228)
(0 -0 -0.00042558)
(0 -0 -0.00039358)
(0 -0 -0.000361376)
(0 -0 -0.000328357)
(0 -0 -0.000296153)
(0 -0 -0.00026721)
(0 -0 -0.000242752)
(0 -0 -0.000224)
(0 -0 -0.000209529)
(0 -0 -0.00020158)
(0 -0 -0.000196484)
(0 -0 -0.00019893)
(0 -0 -0.000206675)
(0 -0 -0.000215643)
(0 -0 -0.000233783)
(0 -0 -0.000252331)
(0 -0 -0.000277197)
(0 -0 -0.000305529)
(0 -0 -0.000338548)
(0 -0 -0.000371159)
(0 -0 -0.000408255)
(0 -0 -0.000444739)
(0 -0 -0.000480815)
(0 -0 -0.000515465)
(0 -0 -0.000543185)
(0 -0 -0.000566624)
(0 -0 -0.000576815)
(0 -0 -0.000582726)
(0 -0 -0.000573758)
(0 -0 -0.000551541)
(0 -0 -0.000518318)
(0 -0 -0.000468382)
(0 -0 -0.000408255)
(0 -0 -0.000334675)
(0 -0 -0.000251312)
(0 -0 -0.000159592)
(0 -0 -6.25732e-05)
(0 -0 3.81146e-05)
(0 -0 0.000140841)
(0 -0 0.000237656)
(0 -0 0.000331822)
(0 -0 0.000420076)
(0 -0 0.000496713)
(0 -0 0.000565197)
(0 -0 0.000620637)
(0 -0 0.00066079)
(0 -0 0.000689121)
(0 -0 0.00070135)
(0 -0 0.000699924)
(0 -0 0.000682395)
(0 -0 0.000651414)
(0 -0 0.000611669)
(0 -0 0.00055949)
(0 -0 0.000501605)
(0 -0 0.000418242)
(0 -0 0.000350981)
(0 -0 0.000259873)
(0 -0 0.000166115)
(0 -0 4.97325e-05)
(0 -0 -4.74904e-05)
(0 -0 -0.000145325)
(0 -0 -0.000242955)
(0 -0 -0.000359949)
(0 -0 -0.000434955)
(0 -0 -0.000528102)
(0 -0 -0.000638981)
(0 -0 -0.000706446)
(0 -0 -0.000770446)
(0 -0 -0.000830777)
(0 -0 -0.000887643)
(0 -0 -0.000940841)
(0 -0 -0.000970395)
(0 -0 -0.000996484)
(0 -0 -0.000999338)
(0 -0 -0.00102013)
(0 -0 -0.000977529)
(0 -0 -0.000974471)
(0 -0 -0.000970395)
(0 -0 -0.000945325)
(0 -0 -0.000900076)
(0 -0 -0.000876025)
(0 -0 -0.000832795)
(0 -0 -0.000811292)
(0 -0 -0.000770915)
(0 -0 -0.00073282)
(0 -0 -0.000697315)
(0 -0 -0.000663766)
(0 -0 -0.000611139)
(0 -0 -0.000560204)
(0 -0 -0.000511654)
(0 -0 -0.000444576)
(0 -0 -0.000377865)
(0 -0 -0.000290385)
(0 -0 -0.000182746)
(0 -0 -7.58298e-05)
(0 -0 3.15231e-05)
(0 -0 0.000181204)
(0 -0 0.000331402)
(0 -0 0.000480614)
(0 -0 0.000609936)
(0 -0 0.000783878)
(0 -0 0.000941289)
(0 -0 0.00107777)
(0 -0 0.00118967)
(0 -0 0.00127717)
(0 -0 0.00132115)
(0 -0 0.00134147)
(0 -0 0.00129559)
(0 -0 0.00122283)
(0 -0 0.00110208)
(0 -0 0.000975062)
(0 -0 0.00082242)
(0 -0 0.000643669)
(0 -0 0.000478981)
(0 -0 0.000311032)
(0 -0 0.000188331)
(0 -0 7.68408e-05)
(0 -0 -6.11465e-07)
(0 -0 -4.56561e-05)
(0 -0 -8.47898e-05)
(0 -0 -0.000125146)
(0 -0 -0.000211975)
(0 -0 -0.00030614)
(0 -0 -0.000448408)
(0 -0 -0.000642446)
(0 -0 -0.000875618)
(0 -0 -0.00113386)
(0 -0 -0.00143613)
(0 -0 -0.00168724)
(0 -0 -0.00188617)
(0 -0 -0.00201152)
(0 -0 -0.00196688)
(0 -0 -0.00183154)
(0 -0 -0.00161671)
(0 -0 -0.00136051)
(0 -0 -0.00112082)
(0 -0 -0.000911083)
(0 -0 -0.000740484)
(0 -0 -0.000617172)
(0 -0 -0.000589248)
(0 -0 -0.000596178)
(0 -0 -0.000642854)
(0 -0 -0.000667924)
(0 -0 -0.000642446)
(0 -0 -0.000549299)
(0 -0 -0.000386242)
(0 -0 -0.00016958)
(0 -0 8.4586e-05)
(0 -0 0.000378089)
(0 -0 0.000707669)
(0 -0 0.00108066)
(0 -0 0.00148056)
(0 -0 0.00186782)
(0 -0 0.00219373)
(0 -0 0.0024161)
(0 -0 0.00249294)
(0 -0 0.00242446)
(0 -0 0.00220922)
(0 -0 0.00187231)
(0 -0 0.00143959)
(0 -0 0.000954293)
(0 -0 0.000452688)
(0 -0 -2.93503e-05)
(0 -0 -0.00046614)
(0 -0 -0.000843618)
(0 -0 -0.00114731)
(0 -0 -0.00138069)
(0 -0 -0.00153783)
(0 -0 -0.00161304)
(0 -0 -0.00160734)
(0 -0 -0.00152846)
(0 -0 -0.00139394)
(0 -0 -0.00123394)
(0 -0 -0.00108637)
(0 -0 -0.000979975)
(0 -0 -0.00092535)
(0 -0 -0.000908229)
(0 -0 -0.000901299)
(0 -0 -0.000873987)
(0 -0 -0.00080265)
(0 -0 -0.000662013)
(0 -0 -0.000448408)
(0 -0 -0.00017814)
(0 -0 0.000123312)
(0 -0 0.000428229)
(0 -0 0.000707465)
(0 -0 0.000946548)
(0 -0 0.00111409)
(0 -0 0.00118502)
(0 -0 0.0011255)
(0 -0 0.000923312)
(0 -0 0.000577427)
(0 -0 0.000107414)
(0 -0 -0.000461656)
(0 -0 -0.00110206)
(0 -0 -0.00177753)
(0 -0 -0.00244178)
(0 -0 -0.00304102)
(0 -0 -0.00351674)
(0 -0 -0.00383042)
(0 -0 -0.00395414)
(0 -0 -0.00388138)
(0 -0 -0.00361783)
(0 -0 -0.00318288)
(0 -0 -0.00258527)
(0 -0 -0.00184132)
(0 -0 -0.000975287)
(0 -0 -3.30191e-05)
(0 -0 0.000915975)
(0 -0 0.00178874)
(0 -0 0.00251761)
(0 -0 0.00306161)
(0 -0 0.00340851)
(0 -0 0.00355791)
(0 -0 0.00353121)
(0 -0 0.0033331)
(0 -0 0.00298456)
(0 -0 0.00249783)
(0 -0 0.00191755)
(0 -0 0.00129732)
(0 -0 0.000709096)
(0 -0 0.000236229)
(0 -0 -5.58471e-05)
(0 -0 -9.06803e-05)
(0 -0 3.64025e-05)
(0 -0 0.000114548)
(0 -0 0.000202191)
(0 -0 0.000289427)
(0 -0 0.000367287)
(0 -0 0.000434548)
(0 -0 0.000490191)
(0 -0 0.000532994)
(0 -0 0.000557656)
(0 -0 0.000568662)
(0 -0 0.000563771)
(0 -0 0.000540739)
(0 -0 0.000502217)
(0 -0 0.000447185)
(0 -0 0.000378497)
(0 -0 0.000297783)
(0 -0 0.000205248)
(0 -0 0.000108637)
(0 -0 6.11465e-06)
(0 -0 -9.6e-05)
(0 -0 -0.000197707)
(0 -0 -0.000292484)
(0 -0 -0.000378497)
(0 -0 -0.000454318)
(0 -0 -0.000516688)
(0 -0 -0.000566624)
(0 -0 -0.000601478)
(0 -0 -0.000621452)
(0 -0 -0.000626752)
(0 -0 -0.000620025)
(0 -0 -0.000604535)
(0 -0 -0.000577427)
(0 -0 -0.000542166)
(0 -0 -0.000504255)
(0 -0 -0.00046349)
(0 -0 -0.000421707)
(0 -0 -0.000379924)
(0 -0 -0.000344051)
(0 -0 -0.000309197)
(0 -0 -0.000280459)
(0 -0 -0.000257223)
(0 -0 -0.000241732)
(0 -0 -0.000232561)
(0 -0 -0.000230318)
(0 -0 -0.00023521)
(0 -0 -0.000244994)
(0 -0 -0.000265783)
(0 -0 -0.000288815)
(0 -0 -0.000318981)
(0 -0 -0.000360153)
(0 -0 -0.000400917)
(0 -0 -0.000447389)
(0 -0 -0.000496306)
(0 -0 -0.000543796)
(0 -0 -0.000592306)
(0 -0 -0.000635924)
(0 -0 -0.000672815)
(0 -0 -0.000699516)
(0 -0 -0.000714395)
(0 -0 -0.000714599)
(0 -0 -0.000701758)
(0 -0 -0.00066935)
(0 -0 -0.00061921)
(0 -0 -0.000554395)
(0 -0 -0.000471847)
(0 -0 -0.00037442)
(0 -0 -0.000263745)
(0 -0 -0.000143694)
(0 -0 -1.16178e-05)
(0 -0 0.000120051)
(0 -0 0.000257427)
(0 -0 0.00039093)
(0 -0 0.000523006)
(0 -0 0.000644076)
(0 -0 0.000758624)
(0 -0 0.000859312)
(0 -0 0.000945529)
(0 -0 0.00101687)
(0 -0 0.00107047)
(0 -0 0.00110797)
(0 -0 0.0011255)
(0 -0 0.00112367)
(0 -0 0.00110859)
(0 -0 0.00105804)
(0 -0 0.00103011)
(0 -0 0.000954293)
(0 -0 0.000851567)
(0 -0 0.000783694)
(0 -0 0.000650395)
(0 -0 0.000553987)
(0 -0 0.000434344)
(0 -0 0.000292688)
(0 -0 0.000170599)
(0 -0 2.8535e-05)
(0 -0 -0.000132892)
(0 -0 -0.000272102)
(0 -0 -0.00038828)
(0 -0 -0.00052158)
(0 -0 -0.00063042)
(0 -0 -0.000735185)
(0 -0 -0.000794701)
(0 -0 -0.000890497)
(0 -0 -0.000941452)
(0 -0 -0.000987924)
(0 -0 -0.000989962)
(0 -0 -0.00100892)
(0 -0 -0.00100443)
(0 -0 -0.000956739)
(0 -0 -0.000927592)
(0 -0 -0.000877045)
(0 -0 -0.000805299)
(0 -0 -0.000733146)
(0 -0 -0.000681783)
(0 -0 -0.000590675)
(0 -0 -0.000520968)
(0 -0 -0.000431898)
(0 -0 -0.000365208)
(0 -0 -0.000280846)
(0 -0 -0.000178487)
(0 -0 -0.000118522)
(0 -0 -3.98879e-05)
(0 -0 3.57503e-05)
(0 -0 8.76637e-05)
(0 -0 0.000157941)
(0 -0 0.000227302)
(0 -0 0.00027467)
(0 -0 0.00033984)
(0 -0 0.000423817)
(0 -0 0.000487676)
(0 -0 0.000571424)
(0 -0 0.000651699)
(0 -0 0.00072852)
(0 -0 0.000806624)
(0 -0 0.000909758)
(0 -0 0.00101487)
(0 -0 0.00111747)
(0 -0 0.00117613)
(0 -0 0.00125475)
(0 -0 0.00131473)
(0 -0 0.00135645)
(0 -0 0.00137763)
(0 -0 0.00139659)
(0 -0 0.00135154)
(0 -0 0.00128265)
(0 -0 0.00116749)
(0 -0 0.00102054)
(0 -0 0.000796943)
(0 -0 0.000540535)
(0 -0 0.000279439)
(0 -0 -4.07643e-07)
(0 -0 -0.000254777)
(0 -0 -0.00048265)
(0 -0 -0.000685656)
(0 -0 -0.000865223)
(0 -0 -0.000999541)
(0 -0 -0.00112571)
(0 -0 -0.00120173)
(0 -0 -0.00125575)
(0 -0 -0.0013228)
(0 -0 -0.00141534)
(0 -0 -0.00155496)
(0 -0 -0.00168846)
(0 -0 -0.00177508)
(0 -0 -0.00179282)
(0 -0 -0.00170639)
(0 -0 -0.00151378)
(0 -0 -0.0012641)
(0 -0 -0.000971414)
(0 -0 -0.000648968)
(0 -0 -0.000347924)
(0 -0 -0.000101299)
(0 -0 0.000115975)
(0 -0 0.000209936)
(0 -0 0.000225427)
(0 -0 0.000209732)
(0 -0 0.000208917)
(0 -0 0.000260076)
(0 -0 0.000385427)
(0 -0 0.000581707)
(0 -0 0.000821605)
(0 -0 0.00108352)
(0 -0 0.00135704)
(0 -0 0.00164341)
(0 -0 0.00193427)
(0 -0 0.00221411)
(0 -0 0.00244606)
(0 -0 0.00258629)
(0 -0 0.00260892)
(0 -0 0.00248948)
(0 -0 0.00223552)
(0 -0 0.0018611)
(0 -0 0.00138966)
(0 -0 0.000859108)
(0 -0 0.00031735)
(0 -0 -0.00019465)
(0 -0 -0.000641223)
(0 -0 -0.00100301)
(0 -0 -0.00127552)
(0 -0 -0.00146568)
(0 -0 -0.00157962)
(0 -0 -0.00162283)
(0 -0 -0.00158899)
(0 -0 -0.00147934)
(0 -0 -0.00129243)
(0 -0 -0.00104907)
(0 -0 -0.000777783)
(0 -0 -0.000517707)
(0 -0 -0.000297783)
(0 -0 -0.000124739)
(0 -0 8.35669e-06)
(0 -0 0.000113121)
(0 -0 0.000216051)
(0 -0 0.000334268)
(0 -0 0.000474701)
(0 -0 0.000633682)
(0 -0 0.000781452)
(0 -0 0.000889682)
(0 -0 0.000938191)
(0 -0 0.000919643)
(0 -0 0.000831389)
(0 -0 0.000669758)
(0 -0 0.000423541)
(0 -0 9.04968e-05)
(0 -0 -0.000327338)
(0 -0 -0.000814268)
(0 -0 -0.00134726)
(0 -0 -0.00190471)
(0 -0 -0.00246828)
(0 -0 -0.0030133)
(0 -0 -0.00348678)
(0 -0 -0.0038453)
(0 -0 -0.00404382)
(0 -0 -0.00406115)
(0 -0 -0.00389564)
(0 -0 -0.00356729)
(0 -0 -0.00310237)
(0 -0 -0.00251903)
(0 -0 -0.00182359)
(0 -0 -0.00102074)
(0 -0 -0.000136561)
(0 -0 0.000782675)
(0 -0 0.00166543)
(0 -0 0.00244382)
(0 -0 0.00306976)
(0 -0 0.00352428)
(0 -0 0.00380963)
(0 -0 0.003936)
(0 -0 0.00389707)
(0 -0 0.00367287)
(0 -0 0.0032589)
(0 -0 0.00266925)
(0 -0 0.00195995)
(0 -0 0.0012321)
(0 -0 0.000618803)
(0 -0 0.00022665)
(0 -0 3.39975e-05)
(0 -0 4.6349e-05)
(0 -0 0.000144102)
(0 -0 0.000251108)
(0 -0 0.000356892)
(0 -0 0.000450446)
(0 -0 0.000531159)
(0 -0 0.000597401)
(0 -0 0.000646726)
(0 -0 0.000677503)
(0 -0 0.000688102)
(0 -0 0.000677911)
(0 -0 0.00064958)
(0 -0 0.000599643)
(0 -0 0.000530955)
(0 -0 0.000445146)
(0 -0 0.00034772)
(0 -0 0.000237452)
(0 -0 0.000118624)
(0 -0 -4.48408e-06)
(0 -0 -0.000126573)
(0 -0 -0.000245605)
(0 -0 -0.000357096)
(0 -0 -0.000458599)
(0 -0 -0.000548076)
(0 -0 -0.000622471)
(0 -0 -0.000680764)
(0 -0 -0.000721936)
(0 -0 -0.000746191)
(0 -0 -0.000753936)
(0 -0 -0.000745987)
(0 -0 -0.000727439)
(0 -0 -0.000695643)
(0 -0 -0.00065651)
(0 -0 -0.000611465)
(0 -0 -0.000560306)
(0 -0 -0.00050772)
(0 -0 -0.000457172)
(0 -0 -0.000409885)
(0 -0 -0.000364229)
(0 -0 -0.000323669)
(0 -0 -0.000290854)
(0 -0 -0.000261299)
(0 -0 -0.000246013)
(0 -0 -0.000235006)
(0 -0 -0.00023521)
(0 -0 -0.000248255)
(0 -0 -0.00026558)
(0 -0 -0.000297172)
(0 -0 -0.000337732)
(0 -0 -0.000386038)
(0 -0 -0.000440255)
(0 -0 -0.00050079)
(0 -0 -0.000565605)
(0 -0 -0.000627975)
(0 -0 -0.000688306)
(0 -0 -0.000742115)
(0 -0 -0.000787159)
(0 -0 -0.000817732)
(0 -0 -0.000836484)
(0 -0 -0.000834242)
(0 -0 -0.000812433)
(0 -0 -0.00077065)
(0 -0 -0.000705631)
(0 -0 -0.000622268)
(0 -0 -0.000516892)
(0 -0 -0.000393783)
(0 -0 -0.000254573)
(0 -0 -0.000101096)
(0 -0 6.03312e-05)
(0 -0 0.000229911)
(0 -0 0.000403159)
(0 -0 0.000578038)
(0 -0 0.000746599)
(0 -0 0.000909452)
(0 -0 0.00106273)
(0 -0 0.00120071)
(0 -0 0.00132504)
(0 -0 0.00143083)
(0 -0 0.00151501)
(0 -0 0.00158166)
(0 -0 0.00162262)
(0 -0 0.00164219)
(0 -0 0.00163852)
(0 -0 0.00161834)
(0 -0 0.00155394)
(0 -0 0.00148076)
(0 -0 0.00139964)
(0 -0 0.00127083)
(0 -0 0.00115689)
(0 -0 0.000997503)
(0 -0 0.000875618)
(0 -0 0.000690548)
(0 -0 0.000525045)
(0 -0 0.000339567)
(0 -0 0.000175898)
(0 -0 -5.50318e-06)
(0 -0 -0.000183236)
(0 -0 -0.000316331)
(0 -0 -0.000465529)
(0 -0 -0.000589045)
(0 -0 -0.000686879)
(0 -0 -0.000759439)
(0 -0 -0.000827312)
(0 -0 -0.000870318)
(0 -0 -0.00086828)
(0 -0 -0.000862573)
(0 -0 -0.000833834)
(0 -0 -0.000802446)
(0 -0 -0.000727847)
(0 -0 -0.000631643)
(0 -0 -0.000534828)
(0 -0 -0.00045758)
(0 -0 -0.000339159)
(0 -0 -0.000201376)
(0 -0 -8.49936e-05)
(0 -0 3.09809e-05)
(0 -0 0.000145936)
(0 -0 0.000278828)
(0 -0 0.000388158)
(0 -0 0.000495654)
(0 -0 0.000581462)
(0 -0 0.000643811)
(0 -0 0.000722099)
(0 -0 0.000776357)
(0 -0 0.000808214)
(0 -0 0.000837564)
(0 -0 0.000842002)
(0 -0 0.000842014)
(0 -0 0.000840383)
(0 -0 0.000817319)
(0 -0 0.000809437)
(0 -0 0.000793254)
(0 -0 0.000772871)
(0 -0 0.000775806)
(0 -0 0.000803791)
(0 -0 0.000832917)
(0 -0 0.000881468)
(0 -0 0.000951317)
(0 -0 0.00104683)
(0 -0 0.00115098)
(0 -0 0.00124168)
(0 -0 0.00135541)
(0 -0 0.00140739)
(0 -0 0.00141758)
(0 -0 0.00138415)
(0 -0 0.00127837)
(0 -0 0.00106966)
(0 -0 0.000774522)
(0 -0 0.000418038)
(0 -0 2.95541e-05)
(0 -0 -0.000362599)
(0 -0 -0.000731516)
(0 -0 -0.00103154)
(0 -0 -0.00128122)
(0 -0 -0.00145712)
(0 -0 -0.00153294)
(0 -0 -0.00152357)
(0 -0 -0.00143144)
(0 -0 -0.00133361)
(0 -0 -0.00125269)
(0 -0 -0.00124637)
(0 -0 -0.00127654)
(0 -0 -0.00130894)
(0 -0 -0.00136051)
(0 -0 -0.00134583)
(0 -0 -0.00122741)
(0 -0 -0.00100158)
(0 -0 -0.000675669)
(0 -0 -0.000280255)
(0 -0 0.000154293)
(0 -0 0.000533605)
(0 -0 0.000920051)
(0 -0 0.00116973)
(0 -0 0.00134441)
(0 -0 0.00140759)
(0 -0 0.00141595)
(0 -0 0.00142573)
(0 -0 0.00147587)
(0 -0 0.00157697)
(0 -0 0.00171271)
(0 -0 0.00184724)
(0 -0 0.0019734)
(0 -0 0.00208489)
(0 -0 0.00218986)
(0 -0 0.00229014)
(0 -0 0.00236963)
(0 -0 0.00239735)
(0 -0 0.00234252)
(0 -0 0.00217946)
(0 -0 0.00191022)
(0 -0 0.0015468)
(0 -0 0.00111225)
(0 -0 0.000631236)
(0 -0 0.000141045)
(0 -0 -0.000317962)
(0 -0 -0.000717656)
(0 -0 -0.00103317)
(0 -0 -0.00126431)
(0 -0 -0.00141676)
(0 -0 -0.00150217)
(0 -0 -0.00152622)
(0 -0 -0.00148036)
(0 -0 -0.00135093)
(0 -0 -0.00112204)
(0 -0 -0.000798777)
(0 -0 -0.000401529)
(0 -0 2.46624e-05)
(0 -0 0.00043251)
(0 -0 0.000787771)
(0 -0 0.0010668)
(0 -0 0.00126471)
(0 -0 0.00138966)
(0 -0 0.0014559)
(0 -0 0.00148341)
(0 -0 0.00148362)
(0 -0 0.00143654)
(0 -0 0.00132199)
(0 -0 0.00112775)
(0 -0 0.000848917)
(0 -0 0.000511389)
(0 -0 0.000133503)
(0 -0 -0.000276382)
(0 -0 -0.000722344)
(0 -0 -0.00119175)
(0 -0 -0.0016695)
(0 -0 -0.00213625)
(0 -0 -0.00257141)
(0 -0 -0.00297661)
(0 -0 -0.00334003)
(0 -0 -0.00364413)