/*--------------------------------*- C++ -*----------------------------------*\
| =========                 |                                                 |
| \\      /  F ield         | OpenFOAM: The Open Source CFD Toolbox           |
|  \\    /   O peration     | Version:  2212                                  |
|   \\  /    A nd           | Website:  www.openfoam.com                      |
|    \\/     M anipulation  |                                                 |
\*---------------------------------------------------------------------------*/
FoamFile
{
    version     2.0;
    format      ascii;
    arch        "LSB;label=32;scalar=64";
    class       pointScalarField;
    location    "0";
    object      psiPoint;
}
// * * * * * * * * * * * * * * * * * * * * * * * * * * * * * * * * * * * * * //

dimensions      [0 3 -1 0 0 0 0];

internalField   nonuniform List<scalar> 
132098
(
0
0
0
0
0
0
0
0
0
0
0
0
0
0
0
0
0
0
0
0
0
0
0
0
0
0
0
0
0
0
0
0
0
0
0
0
0
0
0
0
0
0
0
0
0
0
0
0
0
0
0
0
0
0
0
0
0
0
0
0
0
0
0
0
0
0
0
0
0
0
0
0
0
0
0
0
0
0
0
0
0
0
0
0
0
0
0
0
0
0
0
0
0
0
0
0
0
0
0
0
0
0
0
0
0
0
0
0
0
0
0
0
0
0
0
0
0
0
0
0
0
0
0
0
0
0
0
0
0
0
0
0
0
0
0
0
0
0
0
0
0
0
0
0
0
0
0
0
0
0
0
0
0
0
0
0
0
0
0
0
0
0
0
0
0
0
0
0
0
0
0
0
0
0
0
0
0
0
0
0
0
0
0
0
0
0
0
0
0
0
0
0
0
0
0
0
0
0
0
0
0
0
0
0
0
0
0
0
0
0
0
0
0
0
0
0
0
0
0
0
0
0
0
0
0
0
0
0
0
0
0
0
0
0
0
0
0
0
0
0
0
0
0
0
0
0
0
0
0
0
0
0
0
0
0
0
0
0
3.35835e-05
6.71611e-05
0.00010072
0.000134245
0.000167726
0.000201153
0.000234511
0.000267805
0.000301027
0.000334146
0.000367184
0.000400153
0.000433024
0.000465799
0.000498489
0.000531099
0.000563639
0.000596105
0.000628511
0.00066087
0.000693175
0.000725435
0.000757649
0.000789823
0.000821969
0.000854106
0.000886201
0.000918252
0.000950284
0.000982253
0.00101418
0.00104607
0.00107788
0.00110964
0.00114131
0.00117288
0.00120436
0.00123573
0.00126698
0.0012981
0.0013291
0.00135993
0.00139063
0.00142118
0.00145156
0.00148179
0.00151185
0.00154175
0.0015715
0.00160106
0.00163045
0.00165969
0.00168876
0.00171766
0.00174641
0.00177499
0.00180341
0.00183165
0.00185973
0.00188764
0.00191532
0.00194284
0.00197026
0.00199744
0.00202435
0.00205108
0.00207749
0.0021037
0.00212973
0.00215528
0.00218054
0.00220564
0.00223031
0.00225453
0.00227848
0.00230204
0.0023252
0.00234798
0.00237031
0.00239228
0.00241365
0.0024346
0.00245534
0.0024755
0.00249523
0.00251455
0.00253328
0.00255156
0.00256948
0.00258705
0.0026041
0.00262068
0.00263678
0.00265251
0.00266783
0.00268269
0.0026971
0.00271111
0.0027248
0.00273805
0.00275076
0.00276306
0.00277507
0.00278663
0.00279755
0.00280809
0.00281854
0.00282836
0.00283747
0.0028463
0.00285482
0.00286279
0.00287034
0.00287753
0.002884
0.00289013
0.00289592
0.00290101
0.00290575
0.00290998
0.00291371
0.00291705
0.00291987
0.00292222
0.00292401
0.00292544
0.00292643
0.00292688
0.00292683
0.00292622
0.00292521
0.00292384
0.00292178
0.00291919
0.00291613
0.00291256
0.00290851
0.00290388
0.00289878
0.00289314
0.00288684
0.0028802
0.00287322
0.00286541
0.0028571
0.00284851
0.00283948
0.00283002
0.00282014
0.00280969
0.00279898
0.00278789
0.00277617
0.00276388
0.00275123
0.00273818
0.00272451
0.00271034
0.00269562
0.00268057
0.00266534
0.00264966
0.00263362
0.00261732
0.00260065
0.00258376
0.00256657
0.00254883
0.00253066
0.002512
0.00249285
0.00247325
0.00245322
0.00243295
0.00241223
0.00239114
0.00236962
0.00234759
0.00232526
0.00230259
0.0022796
0.00225626
0.00223253
0.00220838
0.00218377
0.00215879
0.00213341
0.00210749
0.00208115
0.0020545
0.00202743
0.002
0.00197229
0.00194438
0.00191626
0.00188797
0.00185961
0.00183114
0.00180257
0.00177394
0.00174527
0.00171658
0.00168782
0.001659
0.00163008
0.00160102
0.0015718
0.00154239
0.00151281
0.00148308
0.00145318
0.00142312
0.00139291
0.00136255
0.001332
0.00130127
0.00127034
0.0012392
0.00120784
0.00117621
0.0011443
0.00111212
0.00107966
0.00104695
0.00101405
0.000980987
0.000947805
0.000914615
0.000881492
0.000848458
0.000815591
0.000782951
0.000750532
0.000718343
0.000686403
0.000654728
0.000623264
0.00059198
0.000560817
0.000529657
0.000498415
0.000467001
0.000435332
0.000403375
0.000371086
0.000338449
0.000305482
0.000272178
0.000238566
0.00020472
0.000170704
0.000136583
0.000102413
6.82397e-05
3.40957e-05
0
0
6.71718e-05
0.000134329
0.000201446
0.000268497
0.000335459
0.000402313
0.000469035
0.00053562
0.000602056
0.000668306
0.000734388
0.000800312
0.000866054
0.000931611
0.000996998
0.00106223
0.00112731
0.00119226
0.00125708
0.00132179
0.00138641
0.00145093
0.00151538
0.00157974
0.00164405
0.00170831
0.00177251
0.00183662
0.00190068
0.00196464
0.00202851
0.00209228
0.00215592
0.00221942
0.00228276
0.00234591
0.00240888
0.00247162
0.00253412
0.00259637
0.00265836
0.00272004
0.00278144
0.00284254
0.00290331
0.00296378
0.00302391
0.00308372
0.0031432
0.00320234
0.00326113
0.00331961
0.00337776
0.00343557
0.00349307
0.00355024
0.00360708
0.00366357
0.00371973
0.00377556
0.00383098
0.00388605
0.00394083
0.00399515
0.004049
0.00410244
0.00415532
0.00420773
0.00425969
0.00431088
0.00436147
0.00441158
0.00446092
0.00450945
0.00455734
0.00460447
0.00465079
0.00469633
0.004741
0.00478489
0.00482775
0.00486975
0.0049111
0.00495142
0.00499086
0.00502944
0.005067
0.00510367
0.00513951
0.00517455
0.00520865
0.00524185
0.00527412
0.0053056
0.00533622
0.00536596
0.00539484
0.00542288
0.00545018
0.00547663
0.00550212
0.00552676
0.0055507
0.00557376
0.00559577
0.00561695
0.00563762
0.00565723
0.00567567
0.00569339
0.00571037
0.00572633
0.00574143
0.0057557
0.00576878
0.00578106
0.00579252
0.00580282
0.00581227
0.00582075
0.00582825
0.00583488
0.00584051
0.00584518
0.00584882
0.00585161
0.00585347
0.00585432
0.00585416
0.00585297
0.00585089
0.00584794
0.00584382
0.00583867
0.00583252
0.00582537
0.00581724
0.005808
0.00579777
0.00578651
0.00577408
0.00576079
0.00574668
0.00573124
0.00571482
0.00569766
0.00567958
0.00566063
0.00564082
0.00561998
0.00559842
0.00557605
0.00555258
0.00552807
0.00550274
0.00547654
0.00544927
0.00542105
0.00539188
0.00536196
0.00533148
0.0053002
0.00526821
0.0052356
0.00520229
0.00516843
0.00513385
0.00509833
0.00506196
0.00502469
0.00498647
0.00494738
0.00490741
0.00486676
0.00482527
0.004783
0.00473991
0.00469592
0.00465124
0.00460584
0.00455975
0.00451292
0.00446533
0.00441694
0.00436768
0.00431764
0.00426677
0.00421494
0.00416228
0.00410891
0.00405478
0.00399997
0.00394462
0.00388883
0.00383264
0.00377614
0.00371945
0.00366254
0.00360547
0.00354827
0.00349099
0.00343362
0.00337613
0.00331849
0.00326066
0.00320255
0.00314414
0.00308537
0.00302626
0.00296683
0.00290705
0.00284694
0.0027865
0.00272571
0.00266456
0.00260301
0.00254103
0.00247861
0.00241572
0.00235232
0.00228838
0.00222394
0.00215898
0.00209357
0.00202782
0.00196178
0.00189557
0.00182935
0.00176324
0.00169732
0.00163172
0.00156652
0.00150175
0.00143743
0.00137357
0.00131017
0.00124714
0.00118442
0.00112189
0.00105937
0.000996691
0.000933701
0.000870252
0.00080626
0.00074165
0.000676389
0.000610491
0.000543962
0.000476854
0.000409274
0.000341337
0.000273158
0.000204853
0.000136516
6.82184e-05
0
0
0.000100764
0.000201502
0.00030218
0.000402758
0.000503203
0.000603485
0.000703572
0.000803451
0.000903103
0.00100249
0.00110162
0.00120051
0.00129912
0.00139747
0.00149557
0.00159343
0.00169107
0.00178851
0.00188575
0.00198285
0.00207979
0.00217659
0.00227328
0.00236985
0.00246633
0.00256274
0.00265904
0.00275523
0.00285133
0.00294728
0.0030431
0.00313877
0.00323423
0.0033295
0.00342452
0.00351926
0.00361371
0.00370783
0.00380159
0.00389498
0.00398797
0.00408052
0.00417263
0.00426429
0.00435547
0.00444617
0.00453639
0.00462611
0.00471535
0.00480406
0.00489227
0.00498
0.00506723
0.00515397
0.00524023
0.00532599
0.00541126
0.00549603
0.00558029
0.00566404
0.00574721
0.00582984
0.00591198
0.00599347
0.00607426
0.00615441
0.00623375
0.00631237
0.00639026
0.00646709
0.00654302
0.00661813
0.00669215
0.006765
0.00683684
0.00690754
0.00697704
0.00704535
0.00711238
0.00717821
0.00724257
0.00730565
0.00736763
0.00742815
0.00748734
0.00754521
0.00760162
0.00765669
0.0077105
0.00776305
0.00781423
0.00786405
0.00791253
0.00795977
0.00800573
0.00805038
0.00809373
0.00813582
0.00817677
0.00821643
0.00825471
0.00829172
0.00832759
0.00836216
0.00839528
0.00842712
0.00845802
0.00848743
0.00851521
0.00854184
0.00856728
0.00859125
0.00861391
0.00863526
0.00865497
0.0086734
0.00869054
0.00870605
0.00872025
0.00873297
0.00874421
0.00875412
0.00876254
0.00876949
0.00877494
0.00877903
0.00878169
0.00878284
0.00878252
0.00878065
0.00877739
0.00877277
0.00876651
0.00875872
0.00874944
0.00873867
0.00872642
0.00871259
0.00869726
0.00868043
0.00866194
0.0086421
0.00862094
0.00859797
0.00857353
0.00854785
0.00852076
0.0084923
0.00846249
0.00843119
0.0083987
0.00836496
0.00832968
0.00829293
0.00825495
0.00821569
0.00817495
0.00813286
0.00808939
0.00804477
0.00799917
0.00795235
0.00790442
0.0078555
0.0078055
0.00775457
0.00770255
0.00764921
0.00759464
0.00753876
0.00748151
0.00742294
0.00736304
0.00730202
0.00723971
0.0071762
0.00711146
0.00704543
0.00697831
0.00691007
0.00684074
0.00677028
0.00669866
0.00662583
0.00655175
0.0064765
0.00640004
0.00632223
0.00624323
0.00616319
0.00608206
0.00599995
0.00591704
0.00583348
0.00574932
0.00566471
0.00557979
0.00549456
0.00540907
0.00532339
0.00523754
0.00515152
0.00506531
0.00497886
0.00489213
0.00480501
0.00471745
0.00462938
0.0045408
0.00445171
0.00436207
0.00427188
0.00418115
0.00408985
0.00399794
0.0039054
0.00381218
0.00371827
0.00362365
0.00352829
0.00343219
0.00333539
0.00323793
0.00313988
0.0030414
0.00294258
0.00284356
0.00274454
0.00264567
0.00254707
0.0024489
0.00235128
0.00225424
0.00215779
0.00206196
0.0019667
0.00187191
0.00177748
0.00168328
0.00158908
0.00149468
0.00139987
0.00130446
0.00120832
0.00111135
0.00101348
0.000914742
0.000815119
0.00071467
0.000613514
0.000511792
0.000409661
0.000307288
0.000204823
0.000102374
0
0
0.000134357
0.000268679
0.000402918
0.000537023
0.000670952
0.000804664
0.000938119
0.0010713
0.00120417
0.0013367
0.00146888
0.00160075
0.00173225
0.00186341
0.00199423
0.00212474
0.00225496
0.00238491
0.00251461
0.0026441
0.00277339
0.0029025
0.00303145
0.00316025
0.00328892
0.00341749
0.00354592
0.00367421
0.00380236
0.00393032
0.00405809
0.00418567
0.00431297
0.00444001
0.00456672
0.00469306
0.00481901
0.00494453
0.00506957
0.00519411
0.00531811
0.00544154
0.00556439
0.00568662
0.00580822
0.00592918
0.00604949
0.00616914
0.00628814
0.00640646
0.00652409
0.00664109
0.00675743
0.00687311
0.00698814
0.00710252
0.00721624
0.00732929
0.00744167
0.00755336
0.00766429
0.0077745
0.00788402
0.00799267
0.00810041
0.00820727
0.00831309
0.00841791
0.00852173
0.0086242
0.00872546
0.00882559
0.00892427
0.00902145
0.00911725
0.00921152
0.00930421
0.00939531
0.00948472
0.00957251
0.00965841
0.00974259
0.00982523
0.00990597
0.00998495
0.0100621
0.0101375
0.010211
0.0102828
0.0103529
0.0104212
0.0104877
0.0105524
0.0106155
0.0106768
0.0107364
0.0107943
0.0108505
0.0109051
0.010958
0.0110091
0.0110585
0.0111063
0.0111524
0.0111966
0.0112392
0.0112803
0.0113195
0.0113567
0.0113922
0.0114261
0.0114581
0.0114883
0.0115168
0.0115431
0.0115677
0.0115905
0.0116112
0.0116301
0.0116471
0.0116621
0.0116752
0.0116864
0.0116956
0.0117028
0.0117081
0.0117115
0.0117129
0.0117123
0.0117096
0.0117051
0.0116987
0.0116902
0.0116797
0.0116672
0.0116528
0.0116364
0.0116179
0.0115975
0.0115752
0.0115507
0.0115244
0.0114963
0.0114659
0.0114335
0.0113994
0.0113633
0.0113253
0.0112855
0.0112437
0.0112003
0.0111552
0.0111081
0.0110591
0.0110085
0.0109563
0.0109022
0.0108464
0.0107888
0.0107297
0.010669
0.0106067
0.0105429
0.0104776
0.0104108
0.0103428
0.0102732
0.010202
0.0101292
0.0100547
0.00997837
0.00990033
0.00982051
0.0097391
0.00965594
0.00957112
0.00948464
0.00939644
0.00930674
0.00921549
0.00912273
0.00902842
0.00893254
0.00883507
0.00873596
0.00863535
0.00853319
0.00842936
0.00832403
0.00821736
0.00810931
0.00800003
0.0078897
0.00777851
0.00766655
0.00755397
0.00744096
0.00732752
0.0072137
0.00709958
0.00698519
0.00687055
0.00675561
0.00664035
0.00652472
0.00640861
0.00629195
0.00617463
0.00605661
0.00593788
0.00581837
0.00569806
0.00557695
0.005455
0.00533218
0.00520845
0.00508379
0.0049582
0.00483167
0.00470421
0.00457586
0.00444669
0.00431677
0.0041862
0.00405516
0.00392377
0.00379219
0.00366063
0.00352925
0.00339819
0.00326762
0.00313767
0.00300838
0.00287976
0.00275181
0.00262448
0.00249764
0.00237118
0.00224495
0.00211871
0.00199226
0.00186535
0.00173777
0.00160934
0.00147994
0.00134949
0.00121799
0.0010854
0.000951779
0.000817228
0.000681894
0.000545963
0.000409643
0.000273129
0.000136559
0
0
0.000167951
0.000335855
0.000503656
0.00067129
0.000838704
0.00100585
0.00117268
0.00133916
0.00150526
0.00167094
0.0018362
0.00200105
0.00216546
0.00232945
0.00249302
0.00265621
0.00281904
0.00298152
0.00314371
0.00330563
0.0034673
0.00362874
0.00378999
0.00395104
0.00411194
0.00427269
0.00443327
0.00459367
0.00475389
0.00491387
0.00507363
0.00523312
0.00539228
0.0055511
0.00570952
0.00586747
0.00602494
0.00618188
0.00633821
0.00649392
0.00664896
0.00680329
0.00695688
0.00710972
0.00726175
0.00741299
0.00756342
0.00771301
0.0078618
0.00800973
0.00815682
0.0083031
0.00844857
0.00859321
0.00873705
0.00888006
0.00902226
0.00916362
0.00930414
0.00944379
0.0095825
0.0097203
0.0098572
0.00999303
0.0101277
0.0102613
0.0103936
0.0105246
0.0106544
0.0107825
0.010909
0.0110342
0.0111575
0.011279
0.0113988
0.0115166
0.0116325
0.0117464
0.0118582
0.011968
0.0120755
0.0121808
0.0122841
0.0123851
0.0124839
0.0125805
0.0126747
0.0127668
0.0128566
0.0129444
0.0130298
0.0131131
0.0131941
0.013273
0.0133498
0.0134244
0.0134968
0.0135672
0.0136355
0.0137017
0.0137656
0.0138275
0.0138873
0.013945
0.0140004
0.0140536
0.014105
0.014154
0.0142005
0.014245
0.0142873
0.0143273
0.014365
0.0144006
0.0144335
0.0144642
0.0144927
0.0145186
0.0145422
0.0145634
0.0145821
0.0145984
0.0146123
0.0146237
0.0146326
0.0146391
0.0146432
0.0146447
0.0146438
0.0146403
0.0146344
0.0146262
0.0146153
0.014602
0.0145863
0.0145681
0.0145475
0.0145244
0.014499
0.0144711
0.0144407
0.0144079
0.0143729
0.0143351
0.0142949
0.0142524
0.0142074
0.01416
0.0141103
0.0140581
0.0140038
0.0139474
0.0138885
0.0138274
0.0137643
0.0136992
0.0136319
0.0135624
0.0134908
0.0134171
0.0133415
0.0132637
0.0131839
0.0131023
0.0130187
0.0129333
0.0128462
0.012757
0.0126658
0.0125726
0.0124772
0.0123797
0.0122799
0.0121781
0.012074
0.0119678
0.0118595
0.011749
0.0116366
0.0115221
0.0114058
0.0112874
0.011167
0.0110447
0.0109204
0.0107943
0.0106663
0.0105365
0.0104048
0.0102716
0.0101367
0.0100004
0.00986284
0.0097242
0.00958459
0.0094442
0.0093032
0.00916164
0.00901956
0.00887703
0.00873411
0.0085908
0.00844711
0.008303
0.00815844
0.00801332
0.00786753
0.00772095
0.0075735
0.00742511
0.00727571
0.00712523
0.00697366
0.00682097
0.00666713
0.0065121
0.0063559
0.00619852
0.00604002
0.00588043
0.00571983
0.00555833
0.00539603
0.00523307
0.00506964
0.00490587
0.00474193
0.00457803
0.00441433
0.00425096
0.00408809
0.00392584
0.00376426
0.00360336
0.00344311
0.00328348
0.00312432
0.00296551
0.00280692
0.00264832
0.0024895
0.00233021
0.00217021
0.00200932
0.00184739
0.00168431
0.00152006
0.0013546
0.00118793
0.00102016
0.00085141
0.000681881
0.000511795
0.000341367
0.000170747
0
0
0.000201544
0.00040303
0.000604392
0.000805555
0.00100646
0.00120704
0.00140724
0.00160703
0.00180638
0.00200523
0.00220358
0.00240144
0.00259878
0.00279562
0.00299198
0.00318787
0.00338334
0.00357841
0.00377312
0.00396751
0.00416159
0.00435541
0.00454898
0.00474233
0.00493548
0.00512844
0.0053212
0.00551373
0.00570605
0.00589808
0.00608983
0.00628126
0.0064723
0.00666292
0.00685306
0.00704265
0.00723166
0.00742002
0.00760767
0.00779457
0.00798068
0.00816592
0.00835029
0.00853374
0.00871624
0.00889778
0.00907834
0.00925791
0.0094365
0.00961407
0.00979064
0.00996624
0.0101409
0.0103145
0.0104872
0.0106589
0.0108296
0.0109993
0.0111679
0.0113356
0.0115021
0.0116675
0.0118318
0.0119948
0.0121565
0.0123168
0.0124755
0.0126327
0.0127884
0.0129421
0.013094
0.0132441
0.0133921
0.0135379
0.0136816
0.0138231
0.0139621
0.0140988
0.014233
0.0143648
0.0144938
0.0146203
0.0147444
0.0148657
0.0149843
0.0151004
0.0152136
0.0153242
0.0154322
0.0155376
0.0156403
0.0157404
0.0158378
0.0159326
0.0160249
0.0161146
0.0162017
0.0162863
0.0163684
0.0164479
0.0165248
0.0165991
0.016671
0.0167403
0.0168068
0.0168707
0.0169324
0.0169912
0.017047
0.0171004
0.0171512
0.0171991
0.0172444
0.0172869
0.0173264
0.0173633
0.0173973
0.0174284
0.0174566
0.017482
0.0175043
0.0175239
0.0175404
0.017554
0.0175645
0.0175722
0.0175769
0.0175786
0.0175773
0.017573
0.0175657
0.0175556
0.0175424
0.0175263
0.0175072
0.0174852
0.0174604
0.0174327
0.0174021
0.0173686
0.0173322
0.017293
0.0172511
0.017206
0.0171579
0.0171071
0.0170534
0.0169968
0.0169373
0.0168749
0.0168099
0.0167422
0.0166718
0.0165986
0.0165231
0.0164451
0.0163645
0.0162814
0.0161956
0.0161074
0.0160169
0.0159237
0.0158279
0.0157298
0.0156293
0.0155266
0.0154217
0.0153143
0.0152047
0.0150926
0.014978
0.0148608
0.014741
0.0146188
0.0144938
0.0143662
0.014236
0.0141031
0.0139678
0.01383
0.0136898
0.0135472
0.0134022
0.0132549
0.0131053
0.0129536
0.0127998
0.0126438
0.0124859
0.0123262
0.0121647
0.0120015
0.0118368
0.0116708
0.0115037
0.0113356
0.0111667
0.0109971
0.0108268
0.0106558
0.0104843
0.0103123
0.0101398
0.00996676
0.00979317
0.00961893
0.00944393
0.00926801
0.00909107
0.00891299
0.00873365
0.00855298
0.00837092
0.00818747
0.00800258
0.00781626
0.00762853
0.00743941
0.007249
0.00705734
0.00686458
0.00667086
0.00647631
0.00628107
0.00608537
0.00588935
0.00569317
0.00549705
0.00530112
0.0051055
0.00491034
0.00471577
0.00452181
0.0043285
0.00413579
0.00394364
0.00375192
0.00356051
0.00336928
0.00317802
0.00298654
0.00279459
0.00260194
0.00240839
0.00221376
0.00201794
0.00182089
0.00162254
0.00142291
0.00122206
0.0010201
0.000817206
0.000613578
0.000409419
0.000204872
0
0
0.000235135
0.000470201
0.000705123
0.000939815
0.00117421
0.00140823
0.00164182
0.00187493
0.00210753
0.00233957
0.00257103
0.00280192
0.00303223
0.00326196
0.00349113
0.00371978
0.00394794
0.00417563
0.0044029
0.0046298
0.00485635
0.00508258
0.00530853
0.00553421
0.00575964
0.00598486
0.00620982
0.00643452
0.00665895
0.00688306
0.00710683
0.00733022
0.00755316
0.0077756
0.00799749
0.00821874
0.00843931
0.00865912
0.00887811
0.00909622
0.00931341
0.00952959
0.00974475
0.00995885
0.0101718
0.0103837
0.0105944
0.010804
0.0110124
0.0112197
0.0114257
0.0116307
0.0118345
0.0120372
0.0122387
0.0124391
0.0126384
0.0128364
0.0130333
0.013229
0.0134233
0.0136163
0.0138081
0.0139983
0.0141869
0.0143739
0.0145591
0.0147425
0.014924
0.0151034
0.0152805
0.0154556
0.0156283
0.0157984
0.015966
0.016131
0.0162932
0.0164527
0.0166093
0.0167631
0.0169137
0.0170613
0.0172062
0.0173478
0.0174864
0.0176219
0.0177542
0.0178834
0.0180096
0.0181328
0.0182528
0.0183698
0.0184837
0.0185946
0.0187025
0.0188074
0.0189093
0.0190081
0.0191041
0.0191971
0.0192869
0.0193738
0.0194578
0.0195387
0.0196163
0.0196909
0.0197628
0.0198314
0.0198966
0.0199588
0.020018
0.0200738
0.0201265
0.020176
0.0202221
0.0202649
0.0203045
0.0203407
0.0203735
0.0204029
0.020429
0.0204516
0.0204709
0.0204866
0.0204988
0.0205076
0.020513
0.0205149
0.0205133
0.0205081
0.0204995
0.0204875
0.020472
0.020453
0.0204306
0.0204049
0.0203758
0.0203433
0.0203075
0.0202684
0.0202259
0.0201802
0.0201314
0.0200789
0.0200231
0.0199641
0.0199017
0.019836
0.019767
0.0196946
0.019619
0.0195403
0.0194584
0.0193733
0.0192853
0.0191944
0.0191005
0.0190036
0.0189037
0.018801
0.0186954
0.0185867
0.0184749
0.0183603
0.0182428
0.0181227
0.0179998
0.0178742
0.0177458
0.0176147
0.0174806
0.0173437
0.0172038
0.0170609
0.016915
0.0167659
0.0166137
0.0164584
0.0163001
0.016139
0.0159749
0.015808
0.0156384
0.015466
0.015291
0.0151137
0.014934
0.014752
0.0145678
0.0143817
0.0141935
0.0140035
0.0138118
0.0136187
0.0134241
0.0132284
0.0130317
0.012834
0.0126354
0.0124361
0.012236
0.0120352
0.0118337
0.0116316
0.0114288
0.0112253
0.0110209
0.0108155
0.010609
0.0104011
0.0101918
0.00998092
0.0097684
0.00955423
0.00933837
0.00912085
0.00890171
0.008681
0.00845882
0.00823527
0.00801051
0.00778471
0.00755804
0.00733065
0.00710277
0.00687456
0.00664619
0.00641786
0.00618971
0.00596183
0.00573435
0.00550738
0.00528096
0.0050551
0.00482977
0.00460494
0.00438045
0.00415622
0.0039321
0.00370794
0.00348354
0.00325869
0.00303314
0.0028067
0.00257918
0.00235046
0.00212049
0.00188921
0.00165662
0.00142278
0.00118777
0.000951727
0.000714792
0.000477118
0.000238827
0
0
0.000268722
0.000537366
0.000805846
0.00107407
0.00134195
0.00160942
0.0018764
0.00214285
0.00240873
0.00267397
0.00293857
0.00320253
0.00346584
0.0037285
0.00399053
0.00425198
0.00451287
0.00477323
0.00503313
0.00529259
0.00555165
0.00581035
0.00606871
0.00632677
0.00658453
0.00684204
0.00709925
0.00735614
0.00761273
0.00786893
0.00812475
0.00838013
0.00863499
0.00888928
0.00914294
0.00939586
0.00964801
0.00989931
0.0101496
0.010399
0.0106473
0.0108944
0.0111404
0.0113852
0.0116287
0.0118709
0.0121118
0.0123514
0.0125897
0.0128267
0.0130623
0.0132967
0.0135297
0.0137615
0.0139919
0.0142211
0.0144489
0.0146754
0.0149006
0.0151243
0.0153465
0.0155671
0.0157863
0.0160037
0.0162192
0.0164329
0.0166446
0.0168541
0.0170616
0.0172665
0.0174689
0.0176689
0.0178661
0.0180605
0.018252
0.0184405
0.0186259
0.0188082
0.0189871
0.0191629
0.0193351
0.019504
0.0196696
0.0198316
0.0199901
0.0201452
0.0202966
0.0204446
0.020589
0.0207301
0.0208676
0.0210016
0.0211321
0.0212592
0.0213829
0.021503
0.0216198
0.0217331
0.021843
0.0219495
0.0220523
0.0221518
0.0222479
0.0223404
0.0224292
0.0225146
0.0225967
0.022675
0.0227494
0.0228204
0.0228879
0.0229517
0.0230118
0.0230682
0.0231206
0.0231694
0.0232146
0.0232557
0.0232931
0.0233266
0.0233562
0.023382
0.0234039
0.0234217
0.0234356
0.0234457
0.0234518
0.0234538
0.0234519
0.023446
0.0234361
0.0234224
0.0234046
0.0233829
0.0233572
0.0233277
0.0232944
0.0232571
0.0232161
0.0231713
0.0231226
0.0230704
0.0230145
0.0229547
0.022891
0.0228238
0.0227528
0.0226781
0.0225997
0.0225174
0.0224314
0.0223419
0.0222486
0.0221516
0.0220513
0.0219475
0.0218403
0.0217296
0.0216154
0.021498
0.0213772
0.021253
0.0211252
0.020994
0.0208595
0.0207218
0.0205809
0.0204368
0.0202895
0.020139
0.0199853
0.0198283
0.019668
0.0195044
0.0193374
0.0191668
0.0189926
0.0188148
0.0186336
0.018449
0.0182612
0.01807
0.0178757
0.0176783
0.017478
0.0172751
0.0170696
0.0168615
0.0166512
0.0164386
0.0162239
0.0160071
0.0157884
0.015568
0.0153461
0.0151228
0.0148982
0.0146725
0.0144457
0.0142179
0.0139891
0.0137595
0.013529
0.0132977
0.0130655
0.0128325
0.0125985
0.0123634
0.012127
0.0118893
0.0116499
0.0114088
0.0111659
0.0109211
0.0106744
0.0104258
0.0101754
0.00992331
0.00966958
0.00941434
0.00915778
0.00890009
0.00864144
0.00838202
0.00812205
0.0078617
0.00760114
0.00734058
0.00708017
0.00681996
0.00656009
0.00630065
0.00604166
0.00578314
0.00552506
0.00526738
0.00500996
0.00475269
0.00449548
0.00423817
0.00398061
0.00372262
0.00346396
0.00320442
0.00294382
0.00268202
0.00241898
0.00215466
0.00188906
0.00162226
0.00135431
0.00108527
0.000815236
0.00054427
0.000272486
0
0
0.000302304
0.000604522
0.000906557
0.00120831
0.00150969
0.00181061
0.00211099
0.0024108
0.00270996
0.00300844
0.00330621
0.00360328
0.00389963
0.00419526
0.00449021
0.0047845
0.00507819
0.00537129
0.00566385
0.00595594
0.00624757
0.00653879
0.00682963
0.0071201
0.00741025
0.00770008
0.00798958
0.00827871
0.00856748
0.00885583
0.00914372
0.00943112
0.00971792
0.0100041
0.0102895
0.0105742
0.0108579
0.0111407
0.0114224
0.011703
0.0119824
0.0122605
0.0125373
0.0128128
0.0130868
0.0133594
0.0136306
0.0139003
0.0141685
0.0144352
0.0147005
0.0149643
0.0152267
0.0154876
0.015747
0.016005
0.0162615
0.0165165
0.0167699
0.0170217
0.0172717
0.0175201
0.0177667
0.0180113
0.0182538
0.0184942
0.0187322
0.0189679
0.0192012
0.0194316
0.0196593
0.0198842
0.0201059
0.0203245
0.0205398
0.0207519
0.0209604
0.0211654
0.0213668
0.0215645
0.0217584
0.0219484
0.0221349
0.0223173
0.0224959
0.0226706
0.0228413
0.023008
0.0231709
0.02333
0.0234851
0.0236363
0.0237835
0.0239269
0.0240664
0.024202
0.0243336
0.0244614
0.0245854
0.0247054
0.0248214
0.0249335
0.0250417
0.0251459
0.0252459
0.0253419
0.0254342
0.0255223
0.0256059
0.0256857
0.0257615
0.0258331
0.0259005
0.0259637
0.0260226
0.0260773
0.0261279
0.026174
0.0262159
0.0262534
0.0262866
0.0263155
0.0263399
0.0263599
0.0263755
0.0263868
0.0263936
0.0263959
0.0263938
0.0263871
0.0263761
0.0263608
0.0263408
0.0263164
0.0262876
0.0262544
0.0262169
0.0261749
0.0261287
0.0260782
0.0260233
0.0259644
0.0259015
0.0258341
0.0257626
0.0256871
0.0256075
0.0255237
0.0254358
0.0253436
0.0252474
0.0251471
0.0250426
0.0249338
0.0248211
0.0247045
0.0245839
0.0244593
0.0243308
0.0241986
0.0240627
0.0239228
0.0237789
0.0236311
0.0234795
0.0233242
0.0231652
0.0230024
0.0228359
0.0226659
0.0224922
0.0223149
0.0221339
0.0219494
0.021761
0.0215687
0.0213725
0.0211722
0.0209681
0.0207603
0.0205487
0.0203334
0.0201146
0.0198923
0.0196668
0.0194383
0.0192071
0.018973
0.0187364
0.0184975
0.0182561
0.0180125
0.0177668
0.0175193
0.0172699
0.0170189
0.0167665
0.0165128
0.0162577
0.0160015
0.0157441
0.0154855
0.0152259
0.0149652
0.0147035
0.0144408
0.0141769
0.0139119
0.0136455
0.0133776
0.0131081
0.0128367
0.0125634
0.012288
0.0120105
0.011731
0.0114496
0.0111663
0.0108812
0.0105945
0.0103064
0.010017
0.00972651
0.00943519
0.00914323
0.0088508
0.00855807
0.00826527
0.00797253
0.00767994
0.0073876
0.0070956
0.00680395
0.00651266
0.0062217
0.00593102
0.00564049
0.00535001
0.0050595
0.00476881
0.00447786
0.00418649
0.00389449
0.00360167
0.00330782
0.0030128
0.00271656
0.00241907
0.00212039
0.00182058
0.00151969
0.00121775
0.000914756
0.000610712
0.000305735
0
0
0.000335881
0.000671666
0.00100725
0.00134253
0.00167741
0.00201179
0.00234559
0.00267876
0.00301125
0.00334298
0.00367396
0.00400418
0.00433362
0.00466228
0.0049902
0.00531741
0.00564394
0.00596984
0.00629515
0.00661992
0.00694419
0.00726799
0.00759135
0.00791431
0.00823689
0.00855911
0.00888093
0.00920234
0.00952334
0.00984385
0.0101639
0.0104833
0.0108021
0.0111201
0.0114374
0.0117537
0.0120691
0.0123834
0.0126965
0.0130083
0.0133189
0.013628
0.0139357
0.0142418
0.0145464
0.0148495
0.0151509
0.0154507
0.0157489
0.0160455
0.0163404
0.0166338
0.0169256
0.0172157
0.0175042
0.0177911
0.0180763
0.0183598
0.0186415
0.0189215
0.0191995
0.0194755
0.0197495
0.0200213
0.0202908
0.0205579
0.0208223
0.0210841
0.0213432
0.0215991
0.0218519
0.0221017
0.022348
0.0225907
0.0228299
0.0230653
0.023297
0.0235248
0.0237486
0.0239683
0.0241838
0.0243952
0.0246025
0.0248055
0.0250042
0.0251986
0.0253886
0.0255743
0.0257557
0.0259329
0.0261058
0.0262742
0.0264382
0.026598
0.0267535
0.0269046
0.0270513
0.0271937
0.0273318
0.0274654
0.0275945
0.0277192
0.0278395
0.0279554
0.0280666
0.0281733
0.0282758
0.0283736
0.0284665
0.028555
0.0286391
0.0287185
0.0287932
0.0288633
0.0289285
0.0289892
0.0290451
0.0290962
0.0291425
0.0291841
0.0292207
0.0292527
0.0292797
0.0293019
0.0293191
0.0293316
0.0293391
0.0293418
0.0293395
0.0293322
0.02932
0.0293031
0.0292811
0.0292541
0.0292222
0.0291855
0.0291439
0.0290973
0.029046
0.0289899
0.0289289
0.0288633
0.0287933
0.0287183
0.0286387
0.0285548
0.0284663
0.0283733
0.0282759
0.0281737
0.0280671
0.0279561
0.0278402
0.0277197
0.0275948
0.0274654
0.0273315
0.0271931
0.0270502
0.0269031
0.0267519
0.0265963
0.0264362
0.0262719
0.0261031
0.0259301
0.0257529
0.0255713
0.0253857
0.0251959
0.025002
0.0248041
0.0246021
0.0243963
0.0241863
0.0239722
0.0237538
0.0235309
0.023304
0.0230729
0.0228377
0.0225985
0.0223553
0.0221083
0.0218578
0.0216039
0.0213469
0.0210869
0.0208242
0.0205588
0.0202908
0.0200204
0.0197476
0.0194728
0.019196
0.0189173
0.018637
0.0183552
0.0180719
0.0177872
0.0175011
0.0172136
0.0169248
0.0166347
0.0163434
0.0160507
0.0157568
0.0154616
0.0151649
0.0148666
0.0145667
0.0142648
0.013961
0.013655
0.0133468
0.0130365
0.0127242
0.0124098
0.0120936
0.0117756
0.0114561
0.0111352
0.0108131
0.01049
0.0101662
0.00984179
0.00951696
0.00919193
0.00886686
0.00854182
0.00821694
0.0078923
0.00756788
0.0072437
0.00691973
0.00659592
0.00627213
0.00594826
0.00562424
0.00529996
0.00497538
0.00465038
0.00432483
0.00399853
0.00367128
0.00334292
0.00301339
0.00268266
0.0023508
0.00201791
0.00168404
0.00134919
0.0010133
0.000676357
0.000338512
0
0
0.000369449
0.000738796
0.00110793
0.00147673
0.00184511
0.00221296
0.00258019
0.00294675
0.00331258
0.00367762
0.00404184
0.00440526
0.00476784
0.00512959
0.00549054
0.00585073
0.00621019
0.00656895
0.00692707
0.0072846
0.00764157
0.00799802
0.00835398
0.00870948
0.00906454
0.0094192
0.0097734
0.0101271
0.0104804
0.0108331
0.0111853
0.0115368
0.0118875
0.0122375
0.0125866
0.0129346
0.0132816
0.0136274
0.0139719
0.014315
0.0146567
0.0149969
0.0153354
0.0156723
0.0160076
0.0163411
0.0166728
0.0170029
0.0173311
0.0176576
0.0179824
0.0183054
0.0186266
0.018946
0.0192637
0.0195796
0.0198936
0.0202057
0.0205158
0.0208239
0.0211299
0.0214336
0.0217351
0.0220341
0.0223305
0.0226243
0.0229151
0.023203
0.0234878
0.0237692
0.0240471
0.0243217
0.0245925
0.0248594
0.0251224
0.0253814
0.0256362
0.0258868
0.026133
0.0263748
0.026612
0.0268447
0.0270731
0.0272966
0.0275156
0.0277298
0.0279393
0.0281441
0.0283441
0.0285396
0.0287302
0.028916
0.029097
0.0292733
0.0294448
0.0296114
0.0297733
0.0299302
0.0300824
0.0302297
0.030372
0.0305093
0.0306419
0.0307694
0.0308918
0.0310092
0.031122
0.0312295
0.0313317
0.031429
0.0315214
0.0316086
0.0316906
0.0317676
0.0318392
0.0319057
0.0319671
0.0320231
0.0320739
0.0321194
0.0321596
0.0321946
0.0322242
0.0322485
0.0322673
0.032281
0.0322893
0.0322922
0.0322897
0.0322817
0.0322685
0.03225
0.032226
0.0321965
0.0321617
0.0321215
0.0320759
0.0320249
0.0319685
0.0319069
0.0318398
0.0317677
0.0316905
0.0316079
0.0315202
0.0314277
0.0313302
0.0312278
0.0311205
0.0310082
0.0308911
0.0307691
0.0306419
0.0305097
0.0303725
0.0302304
0.0300832
0.0299309
0.0297737
0.0296118
0.0294452
0.0292738
0.0290975
0.0289164
0.0287305
0.0285399