/*--------------------------------*- C++ -*----------------------------------*\
| =========                 |                                                 |
| \\      /  F ield         | OpenFOAM: The Open Source CFD Toolbox           |
|  \\    /   O peration     | Version:  2212                                  |
|   \\  /    A nd           | Website:  www.openfoam.com                      |
|    \\/     M anipulation  |                                                 |
\*---------------------------------------------------------------------------*/
FoamFile
{
    version     2.0;
    format      ascii;
    arch        "LSB;label=32;scalar=64";
    class       volVectorField;
    location    "0.0002";
    object      U;
}
// * * * * * * * * * * * * * * * * * * * * * * * * * * * * * * * * * * * * * //

dimensions      [0 1 -1 0 0 0 0];

internalField   nonuniform List<vector> 
65536
(
(0.000677872 -0.000677852 0)
(0.00203357 -0.000677806 0)
(0.00338912 -0.000677701 0)
(0.0047444 -0.000677529 0)
(0.00609926 -0.000677294 0)
(0.00745359 -0.000676999 0)
(0.00880728 -0.000676648 0)
(0.0101602 -0.000676241 0)
(0.0115123 -0.000675782 0)
(0.0128634 -0.000675274 0)
(0.0142134 -0.000674719 0)
(0.0155623 -0.000674119 0)
(0.0169099 -0.000673476 0)
(0.0182563 -0.000672792 0)
(0.0196012 -0.000672069 0)
(0.0209446 -0.000671305 0)
(0.0222865 -0.000670501 0)
(0.0236267 -0.000669655 0)
(0.0249652 -0.000668764 0)
(0.0263019 -0.000667825 0)
(0.0276366 -0.000666833 0)
(0.0289693 -0.000665783 0)
(0.0302998 -0.000664669 0)
(0.031628 -0.000663484 0)
(0.0329538 -0.000662222 0)
(0.034277 -0.000660877 0)
(0.0355974 -0.000659442 0)
(0.0369148 -0.000657913 0)
(0.0382291 -0.000656284 0)
(0.03954 -0.000654553 0)
(0.0408474 -0.000652718 0)
(0.0421509 -0.000650778 0)
(0.0434505 -0.000648736 0)
(0.0447459 -0.000646593 0)
(0.046037 -0.000644355 0)
(0.0473234 -0.000642025 0)
(0.0486051 -0.00063961 0)
(0.0498819 -0.000637117 0)
(0.0511537 -0.000634551 0)
(0.0524202 -0.000631918 0)
(0.0536815 -0.000629225 0)
(0.0549373 -0.000626474 0)
(0.0561875 -0.000623669 0)
(0.0574321 -0.00062081 0)
(0.0586709 -0.000617896 0)
(0.0599039 -0.000614924 0)
(0.0611308 -0.00061189 0)
(0.0623516 -0.000608787 0)
(0.0635661 -0.000605608 0)
(0.0647742 -0.000602342 0)
(0.0659756 -0.000598982 0)
(0.0671702 -0.000595516 0)
(0.0683578 -0.000591936 0)
(0.069538 -0.000588231 0)
(0.0707107 -0.000584395 0)
(0.0718756 -0.000580419 0)
(0.0730324 -0.000576299 0)
(0.0741808 -0.000572031 0)
(0.0753206 -0.000567612 0)
(0.0764513 -0.000563042 0)
(0.0775728 -0.000558322 0)
(0.0786846 -0.000553454 0)
(0.0797866 -0.000548442 0)
(0.0808785 -0.000543288 0)
(0.0819599 -0.000537999 0)
(0.0830306 -0.000532577 0)
(0.0840904 -0.000527029 0)
(0.085139 -0.000521356 0)
(0.0861762 -0.000515564 0)
(0.0872016 -0.000509655 0)
(0.0882152 -0.000503631 0)
(0.0892166 -0.000497494 0)
(0.0902056 -0.000491245 0)
(0.091182 -0.000484885 0)
(0.0921457 -0.000478415 0)
(0.0930962 -0.000471834 0)
(0.0940335 -0.000465142 0)
(0.0949573 -0.00045834 0)
(0.0958674 -0.000451426 0)
(0.0967636 -0.000444401 0)
(0.0976455 -0.000437264 0)
(0.0985131 -0.000430013 0)
(0.099366 -0.000422647 0)
(0.100204 -0.000415162 0)
(0.101027 -0.000407555 0)
(0.101834 -0.00039982 0)
(0.102626 -0.000391952 0)
(0.103402 -0.000383941 0)
(0.104162 -0.000375781 0)
(0.104905 -0.00036746 0)
(0.105632 -0.00035897 0)
(0.106341 -0.000350304 0)
(0.107033 -0.000341455 0)
(0.107707 -0.000332421 0)
(0.108362 -0.000323208 0)
(0.108999 -0.000313824 0)
(0.109618 -0.000304289 0)
(0.110217 -0.000294628 0)
(0.110796 -0.000284876 0)
(0.111356 -0.000275074 0)
(0.111897 -0.00026527 0)
(0.112418 -0.000255512 0)
(0.112919 -0.000245852 0)
(0.113402 -0.000236335 0)
(0.113866 -0.000227001 0)
(0.114311 -0.00021788 0)
(0.114738 -0.000208989 0)
(0.115147 -0.00020033 0)
(0.11554 -0.000191885 0)
(0.115915 -0.000183617 0)
(0.116274 -0.000175463 0)
(0.116616 -0.000167337 0)
(0.116942 -0.000159127 0)
(0.117251 -0.000150699 0)
(0.117542 -0.000141907 0)
(0.117815 -0.000132606 0)
(0.118069 -0.000122671 0)
(0.118303 -0.00011202 0)
(0.118514 -0.000100638 0)
(0.118702 -8.85944e-05 0)
(0.118865 -7.60481e-05 0)
(0.119004 -6.32347e-05 0)
(0.119117 -5.04343e-05 0)
(0.119206 -3.7917e-05 0)
(0.11927 -2.58687e-05 0)
(0.119312 -1.42887e-05 0)
(0.119332 -2.80941e-06 0)
(0.11933 4.42262e-06 0)
(0.11932 9.35173e-06 0)
(0.119296 1.75222e-05 0)
(0.119252 2.70398e-05 0)
(0.119188 3.66997e-05 0)
(0.119105 4.62984e-05 0)
(0.119004 5.58131e-05 0)
(0.118883 6.52946e-05 0)
(0.118743 7.48015e-05 0)
(0.118584 8.43719e-05 0)
(0.118406 9.40175e-05 0)
(0.118208 0.000103728 0)
(0.117991 0.00011348 0)
(0.117755 0.000123248 0)
(0.117499 0.00013301 0)
(0.117223 0.000142752 0)
(0.116928 0.000152467 0)
(0.116613 0.000162156 0)
(0.116279 0.000171822 0)
(0.115926 0.000181466 0)
(0.115553 0.000191091 0)
(0.115161 0.000200695 0)
(0.11475 0.000210275 0)
(0.11432 0.000219824 0)
(0.113871 0.000229337 0)
(0.113402 0.000238809 0)
(0.112915 0.000248236 0)
(0.112409 0.000257613 0)
(0.111884 0.000266937 0)
(0.111341 0.000276207 0)
(0.110779 0.00028542 0)
(0.110199 0.000294572 0)
(0.1096 0.00030366 0)
(0.108983 0.000312679 0)
(0.108349 0.000321625 0)
(0.107696 0.000330492 0)
(0.107026 0.000339274 0)
(0.106338 0.000347968 0)
(0.105633 0.000356569 0)
(0.104911 0.000365073 0)
(0.104172 0.000373476 0)
(0.103417 0.000381775 0)
(0.102644 0.000389969 0)
(0.101856 0.000398054 0)
(0.101052 0.000406028 0)
(0.100231 0.00041389 0)
(0.0993953 0.000421636 0)
(0.098544 0.000429265 0)
(0.0976776 0.000436773 0)
(0.0967963 0.00044416 0)
(0.0959004 0.000451423 0)
(0.0949901 0.000458559 0)
(0.0940658 0.000465567 0)
(0.0931275 0.000472444 0)
(0.0921757 0.000479187 0)
(0.0912106 0.000485796 0)
(0.0902324 0.000492268 0)
(0.0892414 0.000498601 0)
(0.088238 0.000504793 0)
(0.0872224 0.000510842 0)
(0.0861948 0.000516745 0)
(0.0851557 0.000522501 0)
(0.0841052 0.000528108 0)
(0.0830436 0.000533564 0)
(0.0819714 0.000538869 0)
(0.0808887 0.000544022 0)
(0.0797958 0.000549023 0)
(0.0786931 0.000553874 0)
(0.0775809 0.000558578 0)
(0.0764594 0.000563139 0)
(0.0753289 0.000567562 0)
(0.0741896 0.000571853 0)
(0.0730419 0.000576021 0)
(0.0718859 0.000580074 0)
(0.0707219 0.000584022 0)
(0.0695501 0.000587876 0)
(0.0683706 0.000591645 0)
(0.0671837 0.00059534 0)
(0.0659894 0.000598967 0)
(0.0647878 0.000602533 0)
(0.0635793 0.000606042 0)
(0.0623637 0.000609492 0)
(0.0611413 0.00061288 0)
(0.0599123 0.000616198 0)
(0.0586767 0.000619437 0)
(0.0574347 0.000622581 0)
(0.0561866 0.000625615 0)
(0.0549325 0.000628524 0)
(0.0536728 0.000631292 0)
(0.0524077 0.000633908 0)
(0.0511375 0.000636364 0)
(0.0498625 0.000638662 0)
(0.048583 0.000640807 0)
(0.0472993 0.000642816 0)
(0.0460116 0.000644711 0)
(0.0447202 0.00064652 0)
(0.0434251 0.000648274 0)
(0.0421264 0.000650002 0)
(0.0408243 0.000651731 0)
(0.0395186 0.000653479 0)
(0.0382094 0.000655251 0)
(0.0368966 0.00065704 0)
(0.0355803 0.000658828 0)
(0.0342605 0.000660583 0)
(0.0329374 0.000662267 0)
(0.031611 0.00066384 0)
(0.0302817 0.000665266 0)
(0.0289498 0.000666521 0)
(0.0276156 0.000667595 0)
(0.0262795 0.000668495 0)
(0.0249416 0.000669246 0)
(0.0236024 0.000669888 0)
(0.0222619 0.000670469 0)
(0.0209202 0.000671036 0)
(0.0195774 0.000671628 0)
(0.0182332 0.000672271 0)
(0.0168877 0.000672967 0)
(0.0155408 0.0006737 0)
(0.0141924 0.000674432 0)
(0.0128427 0.000675115 0)
(0.0114917 0.000675696 0)
(0.0101398 0.000676129 0)
(0.00878721 0.000676384 0)
(0.00743438 0.000676454 0)
(0.00608161 0.000676357 0)
(0.00472917 0.000676131 0)
(0.00337725 0.000675832 0)
(0.00202591 0.000675506 0)
(0.000675118 0.000675168 0)
(0.000677908 -0.00203359 0)
(0.00203367 -0.00203345 0)
(0.00338928 -0.00203313 0)
(0.0047446 -0.00203261 0)
(0.00609951 -0.0020319 0)
(0.00745389 -0.00203102 0)
(0.00880764 -0.00202997 0)
(0.0101606 -0.00202875 0)
(0.0115128 -0.00202738 0)
(0.012864 -0.00202586 0)
(0.0142141 -0.0020242 0)
(0.0155631 -0.00202241 0)
(0.0169108 -0.00202049 0)
(0.0182573 -0.00201845 0)
(0.0196023 -0.00201628 0)
(0.0209459 -0.002014 0)
(0.022288 -0.00201159 0)
(0.0236283 -0.00200906 0)
(0.024967 -0.00200639 0)
(0.0263038 -0.00200357 0)
(0.0276388 -0.00200059 0)
(0.0289716 -0.00199744 0)
(0.0303023 -0.00199409 0)
(0.0316307 -0.00199054 0)
(0.0329567 -0.00198674 0)
(0.03428 -0.0019827 0)
(0.0356005 -0.00197839 0)
(0.0369181 -0.0019738 0)
(0.0382325 -0.0019689 0)
(0.0395435 -0.00196371 0)
(0.0408509 -0.0019582 0)
(0.0421546 -0.00195238 0)
(0.0434543 -0.00194625 0)
(0.0447498 -0.00193983 0)
(0.046041 -0.00193312 0)
(0.0473275 -0.00192614 0)
(0.0486094 -0.00191891 0)
(0.0498864 -0.00191144 0)
(0.0511584 -0.00190376 0)
(0.0524251 -0.00189588 0)
(0.0536866 -0.00188781 0)
(0.0549427 -0.00187957 0)
(0.0561932 -0.00187117 0)
(0.0574381 -0.0018626 0)
(0.0586773 -0.00185386 0)
(0.0599105 -0.00184494 0)
(0.0611378 -0.00183584 0)
(0.0623588 -0.00182652 0)
(0.0635736 -0.00181697 0)
(0.064782 -0.00180716 0)
(0.0659836 -0.00179706 0)
(0.0671784 -0.00178664 0)
(0.0683661 -0.00177588 0)
(0.0695465 -0.00176475 0)
(0.0707194 -0.00175322 0)
(0.0718843 -0.00174128 0)
(0.0730412 -0.00172891 0)
(0.0741897 -0.0017161 0)
(0.0753295 -0.00170285 0)
(0.0764603 -0.00168915 0)
(0.0775818 -0.001675 0)
(0.0786938 -0.00166042 0)
(0.079796 -0.00164541 0)
(0.0808881 -0.00162999 0)
(0.0819698 -0.00161416 0)
(0.0830409 -0.00159794 0)
(0.0841011 -0.00158134 0)
(0.0851502 -0.00156437 0)
(0.0861879 -0.00154703 0)
(0.087214 -0.00152935 0)
(0.0882283 -0.00151132 0)
(0.0892305 -0.00149294 0)
(0.0902203 -0.00147423 0)
(0.0911976 -0.00145517 0)
(0.0921621 -0.00143578 0)
(0.0931136 -0.00141604 0)
(0.0940518 -0.00139597 0)
(0.0949765 -0.00137555 0)
(0.0958875 -0.00135479 0)
(0.0967845 -0.00133369 0)
(0.0976672 -0.00131224 0)
(0.0985354 -0.00129044 0)
(0.0993889 -0.00126829 0)
(0.100227 -0.00124578 0)
(0.101051 -0.00122289 0)
(0.101859 -0.00119961 0)
(0.102651 -0.00117594 0)
(0.103427 -0.00115184 0)
(0.104187 -0.00112729 0)
(0.10493 -0.00110227 0)
(0.105656 -0.00107675 0)
(0.106365 -0.00105072 0)
(0.107056 -0.00102416 0)
(0.10773 -0.000997069 0)
(0.108385 -0.000969461 0)
(0.109022 -0.00094137 0)
(0.10964 -0.000912848 0)
(0.11024 -0.000883973 0)
(0.11082 -0.000854843 0)
(0.11138 -0.000825576 0)
(0.111922 -0.000796302 0)
(0.112444 -0.000767161 0)
(0.112946 -0.000738286 0)
(0.11343 -0.000709803 0)
(0.113895 -0.000681816 0)
(0.114342 -0.0006544 0)
(0.11477 -0.000627594 0)
(0.11518 -0.000601395 0)
(0.115572 -0.000575748 0)
(0.115947 -0.000550544 0)
(0.116305 -0.000525608 0)
(0.116645 -0.0005007 0)
(0.116968 -0.000475512 0)
(0.117273 -0.000449682 0)
(0.11756 -0.000422812 0)
(0.117829 -0.000394518 0)
(0.118077 -0.000364473 0)
(0.118305 -0.000332483 0)
(0.118511 -0.000298545 0)
(0.118694 -0.000262891 0)
(0.118854 -0.000226005 0)
(0.118991 -0.000188572 0)
(0.119104 -0.000151389 0)
(0.119194 -0.000115209 0)
(0.119263 -8.05517e-05 0)
(0.119311 -4.74891e-05 0)
(0.11934 -1.53651e-05 0)
(0.119351 7.33768e-06 0)
(0.119345 2.52095e-05 0)
(0.119322 5.11038e-05 0)
(0.119279 8.04876e-05 0)
(0.119217 0.000109558 0)
(0.119135 0.000138292 0)
(0.119034 0.000166801 0)
(0.118914 0.000195271 0)
(0.118776 0.000223863 0)
(0.118617 0.000252667 0)
(0.11844 0.000281695 0)
(0.118243 0.000310903 0)
(0.118026 0.000340219 0)
(0.11779 0.000369569 0)
(0.117534 0.000398891 0)
(0.117258 0.00042815 0)
(0.116963 0.000457331 0)
(0.116649 0.000486436 0)
(0.116315 0.000515474 0)
(0.115961 0.000544452 0)
(0.115589 0.000573374 0)
(0.115197 0.000602232 0)
(0.114785 0.000631016 0)
(0.114355 0.000659708 0)
(0.113905 0.000688292 0)
(0.113436 0.000716752 0)
(0.112948 0.000745073 0)
(0.112442 0.000773246 0)
(0.111916 0.000801262 0)
(0.111372 0.000829113 0)
(0.110809 0.000856791 0)
(0.110228 0.000884286 0)
(0.109629 0.000911585 0)
(0.109011 0.000938676 0)
(0.108375 0.000965542 0)
(0.107722 0.000992169 0)
(0.10705 0.00101854 0)
(0.106361 0.00104464 0)
(0.105655 0.00107045 0)
(0.104932 0.00109597 0)
(0.104192 0.00112119 0)
(0.103435 0.00114608 0)
(0.102661 0.00117066 0)
(0.101872 0.0011949 0)
(0.101066 0.00121881 0)
(0.100245 0.00124237 0)
(0.0994076 0.00126558 0)
(0.0985552 0.00128843 0)
(0.0976878 0.00131091 0)
(0.0968056 0.00133302 0)
(0.0959089 0.00135475 0)
(0.0949979 0.0013761 0)
(0.0940728 0.00139706 0)
(0.0931341 0.00141762 0)
(0.0921818 0.00143777 0)
(0.0912164 0.00145752 0)
(0.090238 0.00147685 0)
(0.089247 0.00149577 0)
(0.0882437 0.00151427 0)
(0.0872282 0.00153233 0)
(0.086201 0.00154997 0)
(0.0851622 0.00156716 0)
(0.0841123 0.00158392 0)
(0.0830513 0.00160023 0)
(0.0819797 0.0016161 0)
(0.0808977 0.00163153 0)
(0.0798057 0.00164651 0)
(0.0787037 0.00166106 0)
(0.0775923 0.00167518 0)
(0.0764715 0.00168889 0)
(0.0753417 0.00170219 0)
(0.074203 0.00171511 0)
(0.0730559 0.00172767 0)
(0.0719004 0.00173989 0)
(0.0707367 0.0017518 0)
(0.0695652 0.00176343 0)
(0.0683859 0.00177479 0)
(0.067199 0.00178593 0)
(0.0660048 0.00179685 0)
(0.0648033 0.00180757 0)
(0.0635947 0.00181809 0)
(0.0623792 0.00182843 0)
(0.061157 0.00183856 0)
(0.059928 0.00184847 0)
(0.0586927 0.00185813 0)
(0.057451 0.00186751 0)
(0.0562033 0.00187656 0)
(0.0549497 0.00188525 0)
(0.0536904 0.00189354 0)
(0.0524257 0.0019014 0)
(0.0511559 0.00190883 0)
(0.0498811 0.00191581 0)
(0.0486017 0.00192238 0)
(0.0473178 0.00192856 0)
(0.0460297 0.00193443 0)
(0.0447376 0.00194004 0)
(0.0434415 0.00194548 0)
(0.0421417 0.00195081 0)
(0.0408381 0.00195611 0)
(0.039531 0.0019614 0)
(0.0382204 0.00196671 0)
(0.0369062 0.00197202 0)
(0.0355887 0.00197726 0)
(0.0342679 0.00198237 0)
(0.032944 0.00198725 0)
(0.0316171 0.0019918 0)
(0.0302876 0.00199593 0)
(0.0289556 0.0019996 0)
(0.0276213 0.00200277 0)
(0.0262851 0.00200548 0)
(0.0249472 0.0020078 0)
(0.0236077 0.00200983 0)
(0.0222668 0.0020117 0)
(0.0209245 0.00201352 0)
(0.0195809 0.00201539 0)
(0.0182359 0.00201737 0)
(0.0168895 0.00201946 0)
(0.0155418 0.0020216 0)
(0.0141928 0.00202369 0)
(0.0128426 0.0020256 0)
(0.0114913 0.00202719 0)
(0.0101394 0.00202835 0)
(0.00878701 0.002029 0)
(0.00743446 0.00202915 0)
(0.006082 0.00202885 0)
(0.00472983 0.00202822 0)
(0.00337803 0.00202743 0)
(0.00202661 0.00202663 0)
(0.000675459 0.00202586 0)
(0.000677965 -0.00338943 0)
(0.00203383 -0.00338917 0)
(0.00338954 -0.00338863 0)
(0.00474496 -0.00338776 0)
(0.00609997 -0.00338659 0)
(0.00745447 -0.00338513 0)
(0.00880833 -0.00338339 0)
(0.0101615 -0.00338137 0)
(0.0115138 -0.0033791 0)
(0.0128651 -0.00337659 0)
(0.0142154 -0.00337384 0)
(0.0155647 -0.00337087 0)
(0.0169127 -0.00336769 0)
(0.0182594 -0.0033643 0)
(0.0196047 -0.00336071 0)
(0.0209486 -0.00335692 0)
(0.0222909 -0.00335292 0)
(0.0236317 -0.00334871 0)
(0.0249707 -0.00334426 0)
(0.0263078 -0.00333957 0)
(0.0276431 -0.00333461 0)
(0.0289763 -0.00332935 0)
(0.0303073 -0.00332377 0)
(0.031636 -0.00331782 0)
(0.0329623 -0.00331149 0)
(0.0342859 -0.00330474 0)
(0.0356067 -0.00329753 0)
(0.0369245 -0.00328986 0)
(0.0382391 -0.00328169 0)
(0.0395503 -0.00327302 0)
(0.040858 -0.00326384 0)
(0.0421619 -0.00325414 0)
(0.0434618 -0.00324394 0)
(0.0447575 -0.00323325 0)
(0.0460489 -0.00322209 0)
(0.0473358 -0.00321049 0)
(0.048618 -0.00319846 0)
(0.0498954 -0.00318606 0)
(0.0511678 -0.00317329 0)
(0.0524351 -0.00316019 0)
(0.0536971 -0.00314678 0)
(0.0549537 -0.00313308 0)
(0.0562048 -0.0031191 0)
(0.0574503 -0.00310483 0)
(0.05869 -0.00309028 0)
(0.0599239 -0.00307542 0)
(0.0611518 -0.00306023 0)
(0.0623734 -0.00304467 0)
(0.0635887 -0.00302872 0)
(0.0647975 -0.00301233 0)
(0.0659996 -0.00299545 0)
(0.0671948 -0.00297804 0)
(0.0683828 -0.00296005 0)
(0.0695635 -0.00294145 0)
(0.0707365 -0.0029222 0)
(0.0719017 -0.00290227 0)
(0.0730587 -0.00288163 0)
(0.0742073 -0.00286028 0)
(0.0753472 -0.0028382 0)
(0.0764782 -0.0028154 0)
(0.0776 -0.00279187 0)
(0.0787123 -0.00276763 0)
(0.0798148 -0.0027427 0)
(0.0809074 -0.00271708 0)
(0.0819897 -0.00269081 0)
(0.0830615 -0.00266388 0)
(0.0841226 -0.00263633 0)
(0.0851726 -0.00260816 0)
(0.0862115 -0.00257939 0)
(0.0872388 -0.00255003 0)
(0.0882544 -0.00252007 0)
(0.089258 -0.00248953 0)
(0.0902493 -0.00245841 0)
(0.0912282 -0.00242671 0)
(0.0921943 -0.00239441 0)
(0.0931474 -0.00236153 0)
(0.0940872 -0.00232806 0)
(0.0950134 -0.002294 0)
(0.0959259 -0.00225934 0)
(0.0968242 -0.00222409 0)
(0.0977082 -0.00218824 0)
(0.0985776 -0.00215178 0)
(0.0994321 -0.00211471 0)
(0.100271 -0.00207702 0)
(0.101095 -0.0020387 0)
(0.101904 -0.00199973 0)
(0.102696 -0.00196008 0)
(0.103472 -0.00191974 0)
(0.104232 -0.00187867 0)
(0.104974 -0.00183684 0)
(0.1057 -0.00179421 0)
(0.106409 -0.00175078 0)
(0.1071 -0.00170651 0)
(0.107773 -0.00166141 0)
(0.108428 -0.00161552 0)
(0.109065 -0.00156889 0)
(0.109684 -0.00152159 0)
(0.110283 -0.00147376 0)
(0.110864 -0.00142554 0)
(0.111426 -0.00137711 0)
(0.111969 -0.00132866 0)
(0.112493 -0.00128038 0)
(0.112998 -0.00123247 0)
(0.113485 -0.00118509 0)
(0.113952 -0.00113839 0)
(0.1144 -0.00109246 0)
(0.11483 -0.00104733 0)
(0.115241 -0.00100298 0)
(0.115633 -0.000959343 0)
(0.116007 -0.000916238 0)
(0.116362 -0.000873424 0)
(0.116698 -0.000830561 0)
(0.117016 -0.000787221 0)
(0.117314 -0.0007429 0)
(0.117593 -0.000697051 0)
(0.117852 -0.00064915 0)
(0.118091 -0.000598772 0)
(0.11831 -0.000545691 0)
(0.118508 -0.000489973 0)
(0.118685 -0.000432035 0)
(0.118841 -0.000372653 0)
(0.118976 -0.000312888 0)
(0.119091 -0.000253933 0)
(0.119186 -0.000196893 0)
(0.119263 -0.000142546 0)
(0.119322 -9.11575e-05 0)
(0.119365 -4.25026e-05 0)
(0.119393 -1.27098e-06 0)
(0.119394 3.74789e-05 0)
(0.119372 8.35815e-05 0)
(0.11933 0.000132809 0)
(0.119269 0.000181111 0)
(0.119189 0.000228825 0)
(0.11909 0.000276305 0)
(0.118972 0.000323872 0)
(0.118835 0.000371739 0)
(0.118678 0.000419992 0)
(0.118501 0.000468605 0)
(0.118305 0.000517481 0)
(0.118089 0.000566494 0)
(0.117853 0.000615525 0)
(0.117598 0.00066449 0)
(0.117322 0.00071334 0)
(0.117027 0.000762064 0)
(0.116713 0.000810668 0)
(0.116379 0.000859169 0)
(0.116026 0.000907578 0)
(0.115653 0.000955896 0)
(0.11526 0.00100411 0)
(0.114848 0.0010522 0)
(0.114417 0.00110013 0)
(0.113967 0.00114788 0)
(0.113497 0.00119542 0)
(0.113008 0.00124273 0)
(0.112501 0.0012898 0)
(0.111974 0.0013366 0)
(0.111428 0.00138312 0)
(0.110864 0.00142935 0)
(0.110282 0.00147527 0)
(0.109681 0.00152086 0)
(0.109061 0.0015661 0)
(0.108424 0.00161095 0)
(0.107768 0.0016554 0)
(0.107095 0.0016994 0)
(0.106404 0.00174295 0)
(0.105696 0.00178601 0)
(0.104971 0.00182856 0)
(0.104229 0.00187059 0)
(0.10347 0.00191209 0)
(0.102694 0.00195303 0)
(0.101903 0.0019934 0)
(0.101095 0.0020332 0)
(0.100272 0.00207241 0)
(0.0994327 0.00211101 0)
(0.0985786 0.002149 0)
(0.0977096 0.00218637 0)
(0.0968259 0.0022231 0)
(0.0959277 0.00225918 0)
(0.0950155 0.00229461 0)
(0.0940894 0.00232937 0)
(0.0931497 0.00236346 0)
(0.0921967 0.00239687 0)
(0.0912308 0.00242959 0)
(0.0902521 0.00246163 0)
(0.0892609 0.00249296 0)
(0.0882576 0.00252359 0)
(0.0872424 0.00255352 0)
(0.0862156 0.00258273 0)
(0.0851774 0.00261124 0)
(0.0841281 0.00263902 0)
(0.083068 0.00266609 0)
(0.0819973 0.00269245 0)
(0.0809163 0.00271809 0)
(0.0798252 0.00274303 0)
(0.0787243 0.00276728 0)
(0.0776138 0.00279084 0)
(0.0764939 0.00281374 0)
(0.075365 0.002836 0)
(0.0742271 0.00285764 0)
(0.0730806 0.0028787 0)
(0.0719256 0.00289921 0)
(0.0707623 0.0029192 0)
(0.069591 0.00293872 0)
(0.0684118 0.00295778 0)
(0.067225 0.00297643 0)
(0.0660308 0.00299469 0)
(0.0648293 0.00301258 0)
(0.0636207 0.00303011 0)
(0.0624053 0.00304729 0)
(0.0611831 0.00306409 0)
(0.0599544 0.00308049 0)
(0.0587194 0.00309647 0)
(0.0574783 0.00311198 0)
(0.0562311 0.00312697 0)
(0.0549781 0.0031414 0)
(0.0537194 0.00315523 0)
(0.0524553 0.00316842 0)
(0.0511858 0.00318095 0)
(0.0499112 0.00319284 0)
(0.0486316 0.00320411 0)
(0.0473472 0.0032148 0)
(0.0460581 0.00322498 0)
(0.0447646 0.00323474 0)
(0.0434669 0.00324417 0)
(0.042165 0.00325336 0)
(0.0408593 0.00326238 0)
(0.03955 0.00327127 0)
(0.0382371 0.00328005 0)
(0.036921 0.0032887 0)
(0.0356018 0.00329714 0)
(0.0342797 0.00330529 0)
(0.0329548 0.00331303 0)
(0.0316274 0.00332025 0)
(0.0302975 0.00332685 0)
(0.0289654 0.00333277 0)
(0.0276311 0.00333801 0)
(0.0262948 0.0033426 0)
(0.0249566 0.00334664 0)
(0.0236165 0.00335028 0)
(0.0222748 0.00335367 0)
(0.0209314 0.00335696 0)
(0.0195864 0.00336026 0)
(0.0182401 0.00336364 0)
(0.0168923 0.00336707 0)
(0.0155434 0.00337047 0)
(0.0141935 0.00337369 0)
(0.0128427 0.00337654 0)
(0.0114913 0.00337885 0)
(0.0101395 0.00338046 0)
(0.0087874 0.00338133 0)
(0.00743529 0.00338146 0)
(0.00608326 0.00338099 0)
(0.00473134 0.0033801 0)
(0.00337955 0.00337905 0)
(0.00202779 0.00337808 0)
(0.000675958 0.00337724 0)
(0.000678036 -0.00474539 0)
(0.00203405 -0.00474502 0)
(0.00338989 -0.00474425 0)
(0.00474545 -0.00474304 0)
(0.00610062 -0.00474141 0)
(0.00745528 -0.00473938 0)
(0.00880934 -0.00473697 0)
(0.0101627 -0.00473418 0)
(0.0115152 -0.00473103 0)
(0.0128669 -0.00472755 0)
(0.0142175 -0.00472374 0)
(0.015567 -0.00471962 0)
(0.0169154 -0.00471521 0)
(0.0182625 -0.0047105 0)
(0.0196083 -0.00470551 0)
(0.0209526 -0.00470023 0)
(0.0222955 -0.00469466 0)
(0.0236367 -0.00468878 0)
(0.0249762 -0.00468257 0)
(0.0263139 -0.004676 0)
(0.0276496 -0.00466905 0)
(0.0289833 -0.00466167 0)
(0.0303148 -0.00465383 0)
(0.031644 -0.00464548 0)
(0.0329706 -0.00463658 0)
(0.0342946 -0.00462709 0)
(0.0356158 -0.00461698 0)
(0.0369339 -0.00460621 0)
(0.0382489 -0.00459475 0)
(0.0395604 -0.0045826 0)
(0.0408684 -0.00456974 0)
(0.0421726 -0.00455618 0)
(0.0434729 -0.00454192 0)
(0.044769 -0.004527 0)
(0.0460609 -0.00451143 0)
(0.0473482 -0.00449524 0)
(0.048631 -0.00447849 0)
(0.049909 -0.00446119 0)
(0.051182 -0.0044434 0)
(0.05245 -0.00442514 0)
(0.0537128 -0.00440644 0)
(0.0549703 -0.00438732 0)
(0.0562223 -0.00436779 0)
(0.0574687 -0.00434784 0)
(0.0587094 -0.00432747 0)
(0.0599442 -0.00430665 0)
(0.0611729 -0.00428534 0)
(0.0623954 -0.0042635 0)
(0.0636115 -0.00424109 0)
(0.064821 -0.00421805 0)
(0.0660237 -0.00419432 0)
(0.0672194 -0.00416984 0)
(0.0684079 -0.00414456 0)
(0.0695889 -0.00411843 0)
(0.0707622 -0.0040914 0)
(0.0719276 -0.00406344 0)
(0.0730849 -0.00403453 0)
(0.0742337 -0.00400464 0)
(0.0753739 -0.00397377 0)
(0.0765052 -0.00394191 0)
(0.0776274 -0.00390908 0)
(0.0787402 -0.00387528 0)
(0.0798433 -0.00384054 0)
(0.0809366 -0.00380487 0)
(0.0820198 -0.00376829 0)
(0.0830926 -0.00373081 0)
(0.0841549 -0.00369246 0)
(0.0852063 -0.00365325 0)
(0.0862466 -0.00361318 0)
(0.0872756 -0.00357226 0)
(0.0882929 -0.0035305 0)
(0.0892984 -0.0034879 0)
(0.0902916 -0.00344444 0)
(0.0912725 -0.00340013 0)
(0.0922406 -0.00335496 0)
(0.0931957 -0.00330892 0)
(0.0941374 -0.00326202 0)
(0.0950656 -0.00321424 0)
(0.0959798 -0.00316558 0)
(0.0968798 -0.00311604 0)
(0.0977653 -0.00306562 0)
(0.098636 -0.00301432 0)
(0.0994916 -0.00296213 0)
(0.100332 -0.00290904 0)
(0.101156 -0.00285505 0)
(0.101965 -0.00280015 0)
(0.102758 -0.00274432 0)
(0.103534 -0.00268752 0)
(0.104293 -0.00262975 0)
(0.105036 -0.00257098 0)
(0.105761 -0.00251117 0)
(0.106469 -0.00245031 0)
(0.10716 -0.0023884 0)
(0.107833 -0.00232546 0)
(0.108488 -0.00226152 0)
(0.109125 -0.00219665 0)
(0.109744 -0.00213098 0)
(0.110345 -0.00206463 0)
(0.110927 -0.00199778 0)
(0.111491 -0.00193064 0)
(0.112037 -0.00186341 0)
(0.112564 -0.00179632 0)
(0.113072 -0.00172954 0)
(0.113561 -0.00166326 0)
(0.114032 -0.00159759 0)
(0.114483 -0.00153262 0)
(0.114914 -0.00146835 0)
(0.115326 -0.00140477 0)
(0.115718 -0.00134177 0)
(0.116089 -0.00127918 0)
(0.11644 -0.00121676 0)
(0.116771 -0.00115418 0)
(0.117081 -0.00109102 0)
(0.11737 -0.0010268 0)
(0.117639 -0.000960957 0)
(0.117887 -0.000892993 0)
(0.118116 -0.000822507 0)
(0.118325 -0.000749326 0)
(0.118515 -0.000673605 0)
(0.118686 -0.000595891 0)
(0.11884 -0.000517119 0)
(0.118976 -0.000438517 0)
(0.119094 -0.000361421 0)
(0.119197 -0.000287035 0)
(0.119283 -0.000216198 0)
(0.119354 -0.000149253 0)
(0.11941 -8.61074e-05 0)
(0.119451 -2.20097e-05 0)
(0.119458 4.61904e-05 0)
(0.119437 0.000115264 0)
(0.119397 0.000183307 0)
(0.119339 0.000250385 0)
(0.119261 0.00031698 0)
(0.119165 0.000383581 0)
(0.119049 0.000450536 0)
(0.118914 0.00051802 0)
(0.118758 0.00058605 0)
(0.118583 0.000654528 0)
(0.118387 0.000723289 0)
(0.118172 0.000792163 0)
(0.117936 0.000861005 0)
(0.117681 0.000929721 0)
(0.117406 0.000998269 0)
(0.117112 0.00106664 0)
(0.116797 0.00113487 0)
(0.116463 0.00120296 0)
(0.11611 0.00127093 0)
(0.115736 0.00133879 0)
(0.115344 0.00140649 0)
(0.114931 0.00147402 0)
(0.114499 0.00154133 0)
(0.114048 0.00160838 0)
(0.113577 0.00167514 0)
(0.113088 0.00174157 0)
(0.112579 0.00180765 0)
(0.112051 0.00187337 0)
(0.111504 0.00193869 0)
(0.110938 0.00200359 0)
(0.110354 0.00206806 0)
(0.109751 0.00213205 0)
(0.10913 0.00219553 0)
(0.10849 0.00225846 0)
(0.107833 0.0023208 0)
(0.107157 0.00238251 0)
(0.106464 0.00244356 0)
(0.105754 0.0025039 0)
(0.105026 0.00256352 0)
(0.104282 0.00262237 0)
(0.10352 0.00268046 0)
(0.102743 0.00273774 0)
(0.101949 0.00279421 0)
(0.101139 0.00284984 0)
(0.100313 0.00290461 0)
(0.0994722 0.00295852 0)
(0.0986161 0.00301154 0)
(0.0977451 0.00306366 0)
(0.0968596 0.00311486 0)
(0.0959599 0.00316513 0)
(0.0950461 0.00321446 0)
(0.0941187 0.00326283 0)
(0.0931779 0.00331025 0)
(0.092224 0.00335671 0)
(0.0912573 0.00340219 0)
(0.090278 0.0034467 0)
(0.0892865 0.00349024 0)
(0.088283 0.0035328 0)
(0.0872677 0.00357439 0)
(0.0862411 0.003615 0)
(0.0852032 0.00365465 0)
(0.0841543 0.00369332 0)
(0.0830947 0.00373104 0)
(0.0820246 0.0037678 0)
(0.0809443 0.00380362 0)
(0.0798539 0.0038385 0)
(0.0787537 0.00387246 0)
(0.0776438 0.00390552 0)
(0.0765246 0.0039377 0)
(0.0753961 0.00396902 0)
(0.0742586 0.00399952 0)
(0.0731123 0.00402922 0)
(0.0719575 0.00405816 0)
(0.0707943 0.00408637 0)
(0.0696229 0.00411389 0)
(0.0684436 0.00414074 0)
(0.0672566 0.00416697 0)
(0.0660622 0.0041926 0)
(0.0648605 0.00421764 0)
(0.0636518 0.00424212 0)
(0.0624362 0.00426604 0)
(0.0612141 0.00428939 0)
(0.0599856 0.00431216 0)
(0.0587509 0.00433432 0)
(0.0575101 0.00435585 0)
(0.0562633 0.00437672 0)
(0.0550108 0.00439689 0)
(0.0537526 0.00441633 0)
(0.0524887 0.00443501 0)
(0.0512193 0.00445291 0)
(0.0499445 0.00447004 0)
(0.0486644 0.00448641 0)
(0.0473791 0.00450204 0)
(0.0460887 0.00451699 0)
(0.0447935 0.00453131 0)
(0.0434938 0.00454507 0)
(0.0421898 0.00455834 0)
(0.0408817 0.00457118 0)
(0.03957 0.00458362 0)
(0.038255 0.00459568 0)
(0.036937 0.00460735 0)
(0.0356162 0.0046186 0)
(0.034293 0.00462935 0)
(0.0329673 0.00463954 0)
(0.0316395 0.00464909 0)
(0.0303095 0.00465792 0)
(0.0289773 0.00466601 0)
(0.0276429 0.00467336 0)
(0.0263064 0.00468001 0)
(0.0249677 0.00468606 0)
(0.0236269 0.00469163 0)
(0.0222841 0.00469686 0)
(0.0209393 0.00470185 0)
(0.0195928 0.00470672 0)
(0.0182449 0.00471147 0)
(0.0168957 0.00471609 0)
(0.0155456 0.00472045 0)
(0.0141948 0.00472442 0)
(0.0128436 0.0047278 0)
(0.0114921 0.00473045 0)
(0.0101405 0.00473224 0)
(0.00878895 0.00473317 0)
(0.00743734 0.00473329 0)
(0.00608567 0.00473279 0)
(0.00473385 0.00473193 0)
(0.00338179 0.00473099 0)
(0.00202937 0.00473022 0)
(0.000676563 0.00472961 0)
(0.000678127 -0.00610151 0)
(0.00203432 -0.00610103 0)
(0.00339035 -0.00610003 0)
(0.00474611 -0.00609849 0)
(0.00610148 -0.00609642 0)
(0.00745638 -0.00609385 0)
(0.0088107 -0.00609079 0)
(0.0101643 -0.00608725 0)
(0.0115172 -0.00608327 0)
(0.0128692 -0.00607885 0)
(0.0142203 -0.00607402 0)
(0.0155703 -0.00606879 0)
(0.0169191 -0.00606318 0)
(0.0182668 -0.00605719 0)
(0.0196131 -0.00605083 0)
(0.0209581 -0.00604409 0)
(0.0223015 -0.00603696 0)
(0.0236434 -0.00602942 0)
(0.0249836 -0.00602145 0)
(0.0263219 -0.00601301 0)
(0.0276583 -0.00600405 0)
(0.0289926 -0.00599454 0)
(0.0303247 -0.00598441 0)
(0.0316544 -0.00597363 0)
(0.0329816 -0.00596214 0)
(0.0343061 -0.00594989 0)
(0.0356278 -0.00593684 0)
(0.0369464 -0.00592295 0)
(0.0382618 -0.00590819 0)
(0.0395738 -0.00589256 0)
(0.0408822 -0.00587603 0)
(0.0421869 -0.00585862 0)
(0.0434876 -0.00584035 0)
(0.0447843 -0.00582123 0)
(0.0460768 -0.00580131 0)
(0.0473648 -0.00578062 0)
(0.0486484 -0.0057592 0)
(0.0499272 -0.00573709 0)
(0.0512012 -0.00571435 0)
(0.0524702 -0.005691 0)
(0.053734 -0.00566706 0)
(0.0549926 -0.00564257 0)
(0.0562458 -0.00561752 0)
(0.0574934 -0.00559191 0)
(0.0587353 -0.00556571 0)
(0.0599712 -0.0055389 0)
(0.0612011 -0.00551143 0)
(0.0624246 -0.00548326 0)
(0.0636417 -0.00545431 0)
(0.0648521 -0.00542453 0)
(0.0660556 -0.00539386 0)
(0.0672521 -0.00536222 0)
(0.0684412 -0.00532956 0)
(0.0696227 -0.00529582 0)
(0.0707966 -0.00526096 0)
(0.0719624 -0.00522494 0)
(0.0731201 -0.00518773 0)
(0.0742693 -0.00514932 0)
(0.0754099 -0.00510969 0)
(0.0765417 -0.00506885 0)
(0.0776644 -0.00502681 0)
(0.0787779 -0.00498357 0)
(0.0798818 -0.00493915 0)
(0.0809761 -0.00489357 0)
(0.0820603 -0.00484684 0)
(0.0831344 -0.00479897 0)
(0.084198 -0.00474999 0)
(0.0852509 -0.00469988 0)
(0.0862929 -0.00464866 0)
(0.0873236 -0.00459632 0)
(0.0883428 -0.00454286 0)
(0.0893501 -0.00448827 0)
(0.0903454 -0.00443254 0)
(0.0913282 -0.00437565 0)
(0.0922984 -0.0043176 0)
(0.0932554 -0.00425837 0)
(0.0941991 -0.00419797 0)
(0.0951291 -0.00413637 0)
(0.096045 -0.00407359 0)
(0.0969466 -0.00400961 0)
(0.0978335 -0.00394444 0)
(0.0987055 -0.00387809 0)
(0.0995621 -0.00381055 0)
(0.100403 -0.00374183 0)
(0.101228 -0.00367193 0)
(0.102037 -0.00360086 0)
(0.10283 -0.00352861 0)
(0.103606 -0.00345518 0)
(0.104366 -0.00338056 0)
(0.105108 -0.00330474 0)
(0.105833 -0.00322771 0)
(0.106541 -0.00314949 0)
(0.107232 -0.00307007 0)
(0.107905 -0.0029895 0)
(0.10856 -0.00290782 0)
(0.109198 -0.00282512 0)
(0.109818 -0.00274151 0)
(0.110421 -0.00265714 0)
(0.111005 -0.00257217 0)
(0.111572 -0.00248679 0)
(0.11212 -0.00240119 0)
(0.112651 -0.00231554 0)
(0.113162 -0.00222999 0)
(0.113655 -0.00214466 0)
(0.114128 -0.00205963 0)
(0.114581 -0.00197492 0)
(0.115014 -0.00189054 0)
(0.115427 -0.00180643 0)
(0.115818 -0.00172254 0)
(0.116187 -0.00163876 0)
(0.116534 -0.00155495 0)
(0.116859 -0.00147092 0)
(0.117162 -0.0013864 0)
(0.117444 -0.00130107 0)
(0.117704 -0.00121455 0)
(0.117944 -0.00112649 0)
(0.118165 -0.00103661 0)
(0.118367 -0.000944814 0)
(0.118552 -0.00085131 0)
(0.118721 -0.000756636 0)
(0.118874 -0.000661659 0)