/*--------------------------------*- C++ -*----------------------------------*\
| =========                 |                                                 |
| \\      /  F ield         | OpenFOAM: The Open Source CFD Toolbox           |
|  \\    /   O peration     | Version:  v2212                                 |
|   \\  /    A nd           | Website:  www.openfoam.com                      |
|    \\/     M anipulation  |                                                 |
\*---------------------------------------------------------------------------*/
FoamFile
{
    version     2.0;
    format      ascii;
    class       volVectorField;
    object      U;
}
// * * * * * * * * * * * * * * * * * * * * * * * * * * * * * * * * * * * * * //

dimensions      [0 1 -1 0 0 0 0];

internalField   nonuniform List<vector> 
65536
(
(0.000684563 -0.000684505 0)
(0.00205355 -0.000684361 0)
(0.00342204 -0.000683981 0)
(0.00478947 -0.000683325 0)
(0.00615533 -0.000682427 0)
(0.00751916 -0.000681314 0)
(0.00888056 -0.00068001 0)
(0.0102392 -0.000678543 0)
(0.0115947 -0.000676942 0)
(0.012947 -0.00067524 0)
(0.0142957 -0.000673469 0)
(0.0156409 -0.000671662 0)
(0.0169824 -0.000669854 0)
(0.0183203 -0.000668074 0)
(0.0196548 -0.000666353 0)
(0.0209858 -0.000664716 0)
(0.0223138 -0.000663184 0)
(0.0236387 -0.000661771 0)
(0.024961 -0.00066049 0)
(0.0262809 -0.000659341 0)
(0.0275986 -0.000658323 0)
(0.0289144 -0.000657426 0)
(0.0302285 -0.000656635 0)
(0.0315411 -0.000655928 0)
(0.0328524 -0.000655279 0)
(0.0341624 -0.000654659 0)
(0.0354712 -0.000654038 0)
(0.0367787 -0.000653382 0)
(0.0380849 -0.000652659 0)
(0.0393895 -0.000651838 0)
(0.0406923 -0.000650891 0)
(0.0419931 -0.000649795 0)
(0.0432916 -0.000648529 0)
(0.0445873 -0.000647079 0)
(0.0458799 -0.000645434 0)
(0.0471691 -0.000643591 0)
(0.0484544 -0.000641549 0)
(0.0497354 -0.000639315 0)
(0.0510117 -0.000636896 0)
(0.052283 -0.000634306 0)
(0.053549 -0.000631557 0)
(0.0548094 -0.000628669 0)
(0.0560638 -0.000625657 0)
(0.0573121 -0.00062254 0)
(0.0585541 -0.000619337 0)
(0.0597896 -0.000616066 0)
(0.0610185 -0.000612743 0)
(0.0622407 -0.000609386 0)
(0.0634561 -0.000606007 0)
(0.0646648 -0.00060262 0)
(0.0658667 -0.000599235 0)
(0.0670618 -0.000595859 0)
(0.0682503 -0.000592495 0)
(0.0694319 -0.000589145 0)
(0.070607 -0.000585804 0)
(0.0717753 -0.000582464 0)
(0.072937 -0.000579111 0)
(0.0740919 -0.000575728 0)
(0.07524 -0.000572292 0)
(0.0763812 -0.000568777 0)
(0.0775153 -0.000565154 0)
(0.078642 -0.00056139 0)
(0.079761 -0.000557453 0)
(0.0808719 -0.00055331 0)
(0.0819743 -0.000548929 0)
(0.0830677 -0.00054428 0)
(0.0841515 -0.000539339 0)
(0.0852251 -0.000534084 0)
(0.0862878 -0.0005285 0)
(0.0873391 -0.000522576 0)
(0.0883781 -0.00051631 0)
(0.0894043 -0.000509702 0)
(0.0904169 -0.000502762 0)
(0.0914153 -0.000495502 0)
(0.0923989 -0.00048794 0)
(0.0933671 -0.000480097 0)
(0.0943194 -0.000471999 0)
(0.0952553 -0.000463673 0)
(0.0961743 -0.000455147 0)
(0.0970761 -0.000446452 0)
(0.0979603 -0.000437616 0)
(0.0988268 -0.00042867 0)
(0.0996753 -0.00041964 0)
(0.100506 -0.000410554 0)
(0.101318 -0.000401435 0)
(0.102112 -0.000392305 0)
(0.102888 -0.000383182 0)
(0.103645 -0.000374083 0)
(0.104384 -0.000365019 0)
(0.105105 -0.000356002 0)
(0.105809 -0.000347037 0)
(0.106494 -0.000338131 0)
(0.107162 -0.000329283 0)
(0.107811 -0.000320494 0)
(0.108444 -0.000311761 0)
(0.109059 -0.000303079 0)
(0.109656 -0.000294442 0)
(0.110237 -0.00028584 0)
(0.1108 -0.000277263 0)
(0.111346 -0.000268701 0)
(0.111875 -0.000260141 0)
(0.112387 -0.000251571 0)
(0.112881 -0.000242977 0)
(0.113359 -0.000234346 0)
(0.113819 -0.000225665 0)
(0.114261 -0.000216923 0)
(0.114687 -0.000208109 0)
(0.115094 -0.000199215 0)
(0.115484 -0.000190234 0)
(0.115855 -0.000181161 0)
(0.116208 -0.000171995 0)
(0.116543 -0.000162738 0)
(0.11686 -0.000153397 0)
(0.117157 -0.000143978 0)
(0.117436 -0.000134487 0)
(0.117695 -0.000124937 0)
(0.117936 -0.00011535 0)
(0.118157 -0.000105735 0)
(0.118359 -9.6097e-05 0)
(0.118542 -8.64455e-05 0)
(0.118705 -7.67985e-05 0)
(0.118849 -6.71696e-05 0)
(0.118974 -5.75522e-05 0)
(0.119079 -4.79276e-05 0)
(0.119165 -3.82854e-05 0)
(0.119232 -2.86275e-05 0)
(0.119279 -1.895e-05 0)
(0.119306 -9.23316e-06 0)
(0.119314 5.45566e-07 0)
(0.119303 1.04022e-05 0)
(0.119271 2.03598e-05 0)
(0.11922 3.0457e-05 0)
(0.119148 4.07216e-05 0)
(0.119055 5.11401e-05 0)
(0.118942 6.1674e-05 0)
(0.118808 7.23019e-05 0)
(0.118652 8.30245e-05 0)
(0.118475 9.38299e-05 0)
(0.118277 0.000104681 0)
(0.118057 0.000115534 0)
(0.117816 0.000126338 0)
(0.117553 0.000137013 0)
(0.117269 0.000147436 0)
(0.116965 0.000157472 0)
(0.116642 0.000167019 0)
(0.116299 0.000176059 0)
(0.115939 0.000184685 0)
(0.115561 0.00019308 0)
(0.115166 0.000201452 0)
(0.114754 0.000209972 0)
(0.114324 0.000218755 0)
(0.113877 0.000227876 0)
(0.11341 0.0002374 0)
(0.112924 0.000247381 0)
(0.112418 0.000257813 0)
(0.111892 0.000268551 0)
(0.111344 0.000279275 0)
(0.110777 0.000289528 0)
(0.11019 0.000298853 0)
(0.109586 0.000306968 0)
(0.108967 0.000313884 0)
(0.108334 0.000319923 0)
(0.107689 0.000325604 0)
(0.107032 0.000331465 0)
(0.106362 0.000337894 0)
(0.105679 0.000345076 0)
(0.10498 0.000353031 0)
(0.104265 0.000361681 0)
(0.103533 0.000370859 0)
(0.102782 0.00038029 0)
(0.102013 0.00038962 0)
(0.101225 0.000398535 0)
(0.10042 0.000406892 0)
(0.0995981 0.000414783 0)
(0.0987603 0.000422473 0)
(0.0979069 0.000430249 0)
(0.0970377 0.000438266 0)
(0.0961524 0.000446462 0)
(0.0952509 0.000454599 0)
(0.0943335 0.000462415 0)
(0.0934009 0.000469791 0)
(0.0924537 0.00047684 0)
(0.0914922 0.000483862 0)
(0.0905161 0.000491216 0)
(0.0895244 0.000499181 0)
(0.088516 0.000507854 0)
(0.0874898 0.000517117 0)
(0.0864449 0.000526665 0)
(0.0853815 0.000536073 0)
(0.0843002 0.000544889 0)
(0.0832025 0.000552734 0)
(0.0820906 0.000559394 0)
(0.0809665 0.000564864 0)
(0.0798325 0.000569314 0)
(0.0786902 0.000572998 0)
(0.0775411 0.000576143 0)
(0.0763863 0.000578866 0)
(0.0752267 0.00058115 0)
(0.0740633 0.000582891 0)
(0.0728972 0.000584038 0)
(0.0717293 0.00058471 0)
(0.07056 0.000585229 0)
(0.0693893 0.000586011 0)
(0.0682163 0.000587407 0)
(0.0670397 0.000589575 0)
(0.065858 0.000592451 0)
(0.0646702 0.000595814 0)
(0.0634755 0.000599399 0)
(0.0622736 0.000602982 0)
(0.0610647 0.00060641 0)
(0.0598491 0.000609632 0)
(0.058627 0.00061271 0)
(0.0573985 0.000615771 0)
(0.0561637 0.00061893 0)
(0.0549221 0.00062224 0)
(0.0536734 0.00062573 0)
(0.052417 0.000629478 0)
(0.0511523 0.000633629 0)
(0.0498784 0.000638319 0)
(0.0485945 0.000643578 0)
(0.0472997 0.000649283 0)
(0.0459936 0.000655191 0)
(0.044676 0.000661007 0)
(0.0433477 0.000666433 0)
(0.0420099 0.000671157 0)
(0.0406643 0.000674829 0)
(0.0393134 0.000677098 0)
(0.03796 0.000677711 0)
(0.0366073 0.000676623 0)
(0.0352581 0.000674043 0)
(0.033915 0.000670371 0)
(0.0325796 0.000666042 0)
(0.0312532 0.000661366 0)
(0.0299363 0.000656451 0)
(0.0286294 0.000651287 0)
(0.0273326 0.000645957 0)
(0.0260457 0.00064083 0)
(0.0247673 0.00063657 0)
(0.0234953 0.000633935 0)
(0.0222259 0.00063347 0)
(0.0209552 0.000635301 0)
(0.019679 0.000639139 0)
(0.018394 0.000644478 0)
(0.0170978 0.000650819 0)
(0.0157886 0.000657792 0)
(0.0144655 0.000665118 0)
(0.0131282 0.000672497 0)
(0.0117768 0.00067952 0)
(0.0104125 0.000685705 0)
(0.00903717 0.000690622 0)
(0.00765337 0.000694035 0)
(0.0062639 0.000695968 0)
(0.0048714 0.000696665 0)
(0.00347807 0.000696481 0)
(0.00208543 0.000695759 0)
(0.000694426 0.00069475 0)
(0.000684651 -0.0020536 0)
(0.00205376 -0.00205312 0)
(0.00342231 -0.00205194 0)
(0.00478976 -0.00204996 0)
(0.00615563 -0.00204726 0)
(0.00751947 -0.00204392 0)
(0.00888089 -0.00204001 0)
(0.0102395 -0.00203562 0)
(0.0115951 -0.00203083 0)
(0.0129474 -0.00202573 0)
(0.0142962 -0.00202043 0)
(0.0156414 -0.00201503 0)
(0.0169831 -0.00200962 0)
(0.0183212 -0.00200431 0)
(0.0196558 -0.00199916 0)
(0.020987 -0.00199427 0)
(0.0223152 -0.00198969 0)
(0.0236404 -0.00198548 0)
(0.024963 -0.00198165 0)
(0.0262831 -0.00197821 0)
(0.0276012 -0.00197517 0)
(0.0289173 -0.00197248 0)
(0.0302317 -0.00197011 0)
(0.0315447 -0.00196798 0)
(0.0328563 -0.00196602 0)
(0.0341666 -0.00196415 0)
(0.0354757 -0.00196227 0)
(0.0367835 -0.00196029 0)
(0.0380899 -0.0019581 0)
(0.0393947 -0.00195562 0)
(0.0406977 -0.00195276 0)
(0.0419987 -0.00194946 0)
(0.0432973 -0.00194565 0)
(0.0445932 -0.0019413 0)
(0.045886 -0.00193636 0)
(0.0471753 -0.00193083 0)
(0.0484607 -0.00192471 0)
(0.0497419 -0.00191802 0)
(0.0510184 -0.00191077 0)
(0.0522899 -0.00190301 0)
(0.0535561 -0.00189477 0)
(0.0548167 -0.00188611 0)
(0.0560713 -0.00187708 0)
(0.0573199 -0.00186774 0)
(0.0585621 -0.00185813 0)
(0.0597978 -0.00184832 0)
(0.0610269 -0.00183835 0)
(0.0622493 -0.00182827 0)
(0.063465 -0.00181813 0)
(0.0646738 -0.00180797 0)
(0.065876 -0.00179782 0)
(0.0670713 -0.00178769 0)
(0.0682599 -0.00177761 0)
(0.0694418 -0.00176756 0)
(0.0706171 -0.00175755 0)
(0.0717857 -0.00174753 0)
(0.0729476 -0.00173748 0)
(0.0741028 -0.00172733 0)
(0.0752512 -0.00171703 0)
(0.0763926 -0.00170648 0)
(0.077527 -0.0016956 0)
(0.0786539 -0.0016843 0)
(0.0797731 -0.00167247 0)
(0.0808843 -0.00166002 0)
(0.0819868 -0.00164686 0)
(0.0830804 -0.00163289 0)
(0.0841643 -0.00161804 0)
(0.0852379 -0.00160226 0)
(0.0863007 -0.00158549 0)
(0.087352 -0.00156772 0)
(0.0883911 -0.00154892 0)
(0.0894173 -0.0015291 0)
(0.09043 -0.00150829 0)
(0.0914285 -0.00148654 0)
(0.0924122 -0.00146388 0)
(0.0933806 -0.00144038 0)
(0.0943331 -0.00141613 0)
(0.0952693 -0.00139119 0)
(0.0961886 -0.00136565 0)
(0.0970908 -0.00133961 0)
(0.0979756 -0.00131314 0)
(0.0988426 -0.00128633 0)
(0.0996917 -0.00125927 0)
(0.100523 -0.00123204 0)
(0.101336 -0.0012047 0)
(0.10213 -0.00117732 0)
(0.102906 -0.00114995 0)
(0.103665 -0.00112265 0)
(0.104405 -0.00109545 0)
(0.105126 -0.00106838 0)
(0.10583 -0.00104147 0)
(0.106516 -0.00101473 0)
(0.107184 -0.000988162 0)
(0.107835 -0.00096177 0)
(0.108468 -0.000935546 0)
(0.109083 -0.000909474 0)
(0.109681 -0.000883537 0)
(0.110262 -0.000857709 0)
(0.110825 -0.000831962 0)
(0.111372 -0.000806259 0)
(0.111901 -0.000780565 0)
(0.112413 -0.000754843 0)
(0.112908 -0.000729055 0)
(0.113385 -0.000703158 0)
(0.113846 -0.000677116 0)
(0.114289 -0.000650894 0)
(0.114714 -0.00062446 0)
(0.115122 -0.000597789 0)
(0.115512 -0.000570862 0)
(0.115883 -0.00054367 0)
(0.116237 -0.000516201 0)
(0.116572 -0.000488459 0)
(0.116889 -0.000460463 0)
(0.117187 -0.000432236 0)
(0.117466 -0.000403793 0)
(0.117726 -0.00037516 0)
(0.117967 -0.000346383 0)
(0.118189 -0.000317506 0)
(0.118391 -0.000288554 0)
(0.118574 -0.000259541 0)
(0.118737 -0.000230493 0)
(0.118881 -0.000201442 0)
(0.119006 -0.0001724 0)
(0.11911 -0.000143342 0)
(0.119195 -0.000114237 0)
(0.119261 -8.50731e-05 0)
(0.119306 -5.58363e-05 0)
(0.119332 -2.64842e-05 0)
(0.119338 3.03938e-06 0)
(0.119324 3.27663e-05 0)
(0.11929 6.27174e-05 0)
(0.119236 9.29547e-05 0)
(0.119162 0.000123569 0)
(0.119068 0.000154589 0)
(0.118953 0.000185949 0)
(0.118817 0.000217566 0)
(0.118661 0.000249417 0)
(0.118484 0.000281486 0)
(0.118285 0.00031369 0)
(0.118066 0.00034587 0)
(0.117827 0.000377832 0)
(0.117566 0.000409362 0)
(0.117285 0.000440224 0)
(0.116984 0.000470191 0)
(0.116663 0.000499078 0)
(0.116323 0.000526816 0)
(0.115964 0.000553541 0)
(0.115586 0.000579607 0)
(0.11519 0.000605499 0)
(0.114776 0.000631696 0)
(0.114343 0.000658555 0)
(0.113892 0.000686285 0)
(0.113423 0.000714955 0)
(0.112934 0.000744524 0)
(0.112427 0.000774817 0)
(0.1119 0.000805448 0)
(0.111355 0.000835759 0)
(0.110791 0.000864878 0)
(0.11021 0.000891933 0)
(0.109612 0.000916354 0)
(0.108998 0.000938113 0)
(0.108369 0.000957781 0)
(0.107726 0.000976391 0)
(0.107068 0.000995142 0)
(0.106397 0.00101506 0)
(0.105712 0.00103675 0)
(0.105012 0.00106038 0)
(0.104295 0.00108574 0)
(0.103562 0.00111245 0)
(0.102812 0.00113993 0)
(0.102044 0.00116745 0)
(0.101258 0.00119431 0)
(0.100454 0.00122009 0)
(0.0996322 0.00124475 0)
(0.0987935 0.00126868 0)
(0.0979383 0.00129239 0)
(0.0970669 0.00131628 0)
(0.0961796 0.00134035 0)
(0.0952765 0.00136427 0)
(0.0943578 0.00138757 0)
(0.0934235 0.00141002 0)
(0.0924739 0.00143187 0)
(0.091509 0.00145378 0)
(0.0905286 0.00147657 0)
(0.0895322 0.00150085 0)
(0.0885191 0.00152678 0)
(0.0874888 0.00155398 0)
(0.0864411 0.00158163 0)
(0.0853763 0.00160868 0)
(0.0842951 0.00163406 0)
(0.0831986 0.00165687 0)
(0.0820886 0.00167662 0)
(0.0809666 0.00169323 0)
(0.0798345 0.00170697 0)
(0.0786939 0.00171835 0)
(0.0775465 0.00172778 0)
(0.0763936 0.00173557 0)
(0.0752364 0.00174183 0)
(0.0740758 0.0017466 0)
(0.0729125 0.00175001 0)
(0.0717469 0.00175248 0)
(0.0705793 0.00175474 0)
(0.0694093 0.00175772 0)
(0.0682365 0.00176224 0)
(0.06706 0.00176871 0)
(0.0658789 0.00177704 0)
(0.064692 0.00178673 0)
(0.0634988 0.00179714 0)
(0.0622986 0.00180773 0)
(0.0610914 0.00181813 0)
(0.059877 0.00182815 0)
(0.0586554 0.00183785 0)
(0.0574267 0.0018475 0)
(0.0561906 0.00185746 0)
(0.0549468 0.00186803 0)
(0.0536948 0.0018794 0)
(0.0524339 0.00189167 0)
(0.0511636 0.00190497 0)
(0.0498836 0.00191945 0)
(0.0485935 0.0019351 0)
(0.0472931 0.00195166 0)
(0.0459826 0.00196851 0)
(0.0446623 0.00198484 0)
(0.0433331 0.00199971 0)
(0.0419966 0.00201226 0)
(0.0406544 0.00202165 0)
(0.0393087 0.00202718 0)
(0.0379617 0.00202841 0)
(0.0366155 0.0020253 0)
(0.0352724 0.00201828 0)
(0.0339344 0.00200812 0)
(0.0326033 0.00199573 0)
(0.0312801 0.00198193 0)
(0.0299658 0.00196733 0)
(0.0286603 0.0019524 0)
(0.0273633 0.00193777 0)
(0.0260738 0.00192444 0)
(0.0247903 0.00191383 0)
(0.0235108 0.00190749 0)
(0.0222329 0.00190662 0)
(0.0209537 0.00191161 0)
(0.0196701 0.00192201 0)
(0.0183793 0.00193676 0)
(0.0170791 0.00195461 0)
(0.0157676 0.00197446 0)
(0.014444 0.00199532 0)
(0.0131078 0.00201624 0)
(0.0117592 0.00203615 0)
(0.010399 0.00205391 0)
(0.00902828 0.0020685 0)
(0.0076488 0.00207923 0)
(0.00626266 0.002086 0)
(0.00487217 0.00208917 0)
(0.00347962 0.00208949 0)
(0.00208688 0.00208788 0)
(0.000695098 0.00208511 0)
(0.000684736 -0.00342291 0)
(0.00205398 -0.00342202 0)
(0.0034226 -0.00341999 0)
(0.00479011 -0.00341665 0)
(0.00615602 -0.00341214 0)
(0.0075199 -0.00340657 0)
(0.00888137 -0.00340006 0)
(0.0102401 -0.00339275 0)
(0.0115958 -0.00338479 0)
(0.0129482 -0.00337632 0)
(0.0142972 -0.00336752 0)
(0.0156426 -0.00335855 0)
(0.0169846 -0.00334958 0)
(0.018323 -0.00334076 0)
(0.019658 -0.00333224 0)
(0.0209897 -0.00332414 0)
(0.0223183 -0.00331655 0)
(0.0236441 -0.00330956 0)
(0.0249673 -0.00330322 0)
(0.026288 -0.00329752 0)
(0.0276067 -0.00329247 0)
(0.0289234 -0.003288 0)
(0.0302385 -0.00328404 0)
(0.0315521 -0.00328049 0)
(0.0328643 -0.00327721 0)
(0.0341752 -0.00327407 0)
(0.0354848 -0.0032709 0)
(0.0367931 -0.00326756 0)
(0.0380999 -0.00326387 0)
(0.0394051 -0.0032597 0)
(0.0407085 -0.00325491 0)
(0.0420098 -0.00324938 0)
(0.0433087 -0.00324302 0)
(0.0446049 -0.00323575 0)
(0.045898 -0.00322752 0)
(0.0471876 -0.00321832 0)
(0.0484734 -0.00320813 0)
(0.0497549 -0.00319699 0)
(0.0510318 -0.00318493 0)
(0.0523037 -0.00317201 0)
(0.0535703 -0.0031583 0)
(0.0548313 -0.00314389 0)
(0.0560864 -0.00312884 0)
(0.0573354 -0.00311327 0)
(0.058578 -0.00309725 0)
(0.0598142 -0.00308089 0)
(0.0610437 -0.00306426 0)
(0.0622666 -0.00304746 0)
(0.0634826 -0.00303056 0)
(0.0646919 -0.00301362 0)
(0.0658944 -0.00299669 0)
(0.0670902 -0.00297982 0)
(0.0682792 -0.00296302 0)
(0.0694616 -0.0029463 0)
(0.0706373 -0.00292963 0)
(0.0718063 -0.00291296 0)
(0.0729687 -0.00289623 0)
(0.0741244 -0.00287933 0)
(0.0752734 -0.00286216 0)
(0.0764153 -0.00284457 0)
(0.0775501 -0.00282643 0)
(0.0786775 -0.00280756 0)
(0.0797971 -0.00278781 0)
(0.0809086 -0.00276702 0)
(0.0820114 -0.00274502 0)
(0.0831051 -0.00272169 0)
(0.0841892 -0.0026969 0)
(0.085263 -0.00267056 0)
(0.0863258 -0.00264258 0)
(0.0873771 -0.00261294 0)
(0.0884163 -0.00258161 0)
(0.0894425 -0.0025486 0)
(0.0904553 -0.00251396 0)
(0.091454 -0.00247775 0)
(0.0924379 -0.00244006 0)
(0.0934066 -0.00240098 0)
(0.0943596 -0.00236064 0)
(0.0952962 -0.00231917 0)
(0.0962162 -0.00227671 0)
(0.0971192 -0.00223339 0)
(0.0980048 -0.00218937 0)
(0.0988727 -0.00214477 0)
(0.0997228 -0.00209974 0)
(0.100555 -0.00205441 0)
(0.101369 -0.00200888 0)
(0.102165 -0.00196327 0)
(0.102942 -0.00191767 0)
(0.103702 -0.00187216 0)
(0.104443 -0.0018268 0)
(0.105166 -0.00178166 0)
(0.105871 -0.00173676 0)
(0.106558 -0.00169214 0)
(0.107227 -0.00164781 0)
(0.107879 -0.00160377 0)
(0.108512 -0.00156001 0)
(0.109129 -0.00151651 0)
(0.109728 -0.00147323 0)
(0.110309 -0.00143014 0)
(0.110874 -0.00138718 0)
(0.111421 -0.0013443 0)
(0.111951 -0.00130145 0)
(0.112464 -0.00125855 0)
(0.112959 -0.00121554 0)
(0.113437 -0.00117236 0)
(0.113898 -0.00112894 0)
(0.114342 -0.00108523 0)
(0.114767 -0.00104118 0)
(0.115176 -0.00099674 0)
(0.115566 -0.000951885 0)
(0.115938 -0.000906597 0)
(0.116292 -0.000860864 0)
(0.116628 -0.000814681 0)
(0.116945 -0.000768065 0)
(0.117244 -0.000721052 0)
(0.117523 -0.000673673 0)
(0.117784 -0.000625958 0)
(0.118025 -0.000577955 0)
(0.118247 -0.000529726 0)
(0.11845 -0.000481319 0)
(0.118633 -0.000432762 0)
(0.118796 -0.00038408 0)
(0.118939 -0.000335315 0)
(0.119063 -0.000286499 0)
(0.119166 -0.000237627 0)
(0.119249 -0.000188665 0)
(0.119313 -0.000139594 0)
(0.119356 -9.04123e-05 0)
(0.119378 -4.10896e-05 0)
(0.119381 8.44073e-06 0)
(0.119364 5.82309e-05 0)
(0.119326 0.000108285 0)
(0.119268 0.000158623 0)
(0.11919 0.00020934 0)
(0.119093 0.00026054 0)
(0.118975 0.000312214 0)
(0.118837 0.000364255 0)
(0.11868 0.000416571 0)
(0.118502 0.000469108 0)
(0.118305 0.000521773 0)
(0.118087 0.000574383 0)
(0.11785 0.000626696 0)
(0.117593 0.000678441 0)
(0.117316 0.000729362 0)
(0.117019 0.000779252 0)
(0.116702 0.000827956 0)
(0.116365 0.000875391 0)
(0.116007 0.000921618 0)
(0.11563 0.000966924 0)
(0.115232 0.00101179 0)
(0.114815 0.00105674 0)
(0.114379 0.00110224 0)
(0.113924 0.00114855 0)
(0.113452 0.00119573 0)
(0.112961 0.00124362 0)
(0.112454 0.00129193 0)
(0.11193 0.00134022 0)
(0.111389 0.00138788 0)
(0.110832 0.00143412 0)
(0.110258 0.00147808 0)
(0.109667 0.00151912 0)
(0.109059 0.00155708 0)
(0.108434 0.00159243 0)
(0.107792 0.00162619 0)
(0.107135 0.00165968 0)
(0.106462 0.00169421 0)
(0.105774 0.00173074 0)
(0.105071 0.00176971 0)
(0.104352 0.00181103 0)
(0.103618 0.00185427 0)
(0.102868 0.0018988 0)
(0.102101 0.00194387 0)
(0.101316 0.00198866 0)
(0.100513 0.00203249 0)
(0.0996914 0.00207502 0)
(0.0988517 0.00211635 0)
(0.0979943 0.00215685 0)
(0.09712 0.00219695 0)
(0.0962294 0.00223687 0)
(0.0953227 0.00227647 0)
(0.0943999 0.00231547 0)
(0.0934609 0.00235367 0)
(0.0925055 0.00239133 0)
(0.0915338 0.00242915 0)
(0.090546 0.00246803 0)
(0.0895421 0.00250868 0)
(0.0885222 0.00255121 0)
(0.0874867 0.00259509 0)
(0.0864355 0.0026392 0)
(0.0853693 0.00268214 0)
(0.0842885 0.00272252 0)
(0.0831941 0.00275921 0)
(0.082087 0.00279145 0)
(0.0809686 0.00281898 0)
(0.0798403 0.00284198 0)
(0.0787038 0.00286095 0)
(0.0775606 0.00287645 0)
(0.076412 0.002889 0)
(0.0752592 0.00289899 0)
(0.0741027 0.0029068 0)
(0.0729428 0.0029129 0)
(0.0717798 0.00291793 0)
(0.0706137 0.00292286 0)
(0.0694444 0.00292876 0)
(0.0682719 0.00293666 0)
(0.0670959 0.0029472 0)
(0.0659157 0.00296046 0)
(0.0647306 0.00297593 0)
(0.0635396 0.00299282 0)
(0.0623418 0.00301037 0)
(0.0611366 0.00302804 0)
(0.0599235 0.00304559 0)
(0.0587019 0.00306301 0)
(0.0574716 0.00308059 0)
(0.0562323 0.00309878 0)
(0.0549837 0.00311805 0)
(0.0537253 0.00313865 0)
(0.0524568 0.00316063 0)
(0.0511781 0.00318394 0)
(0.0498894 0.00320849 0)
(0.0485911 0.00323406 0)
(0.047284 0.0032602 0)
(0.0459688 0.00328604 0)
(0.0446465 0.00331044 0)
(0.0433184 0.0033321 0)
(0.0419858 0.00334985 0)
(0.0406501 0.00336269 0)
(0.0393128 0.00336988 0)
(0.0379752 0.00337095 0)
(0.0366387 0.00336587 0)
(0.0353046 0.00335509 0)
(0.0339745 0.00333952 0)
(0.0326496 0.00332034 0)
(0.0313307 0.00329884 0)
(0.0300183 0.00327626 0)
(0.0287121 0.00325374 0)
(0.0274113 0.00323248 0)
(0.0261148 0.00321387 0)
(0.0248214 0.00319956 0)
(0.0235299 0.00319133 0)
(0.0222391 0.00319063 0)
(0.0209474 0.00319812 0)
(0.0196528 0.00321348 0)
(0.0183533 0.0032355 0)
(0.017047 0.00326255 0)
(0.0157324 0.00329289 0)
(0.0144084 0.00332495 0)
(0.0130746 0.00335724 0)
(0.0117306 0.00338831 0)
(0.0103765 0.00341664 0)
(0.00901235 0.0034408 0)
(0.00763905 0.00345966 0)
(0.00625792 0.0034726 0)
(0.00487094 0.00347971 0)
(0.00348044 0.00348178 0)
(0.00208848 0.00348028 0)
(0.000696177 0.00347672 0)
(0.00068477 -0.00479232 0)
(0.00205407 -0.00479099 0)
(0.00342273 -0.00478807 0)
(0.00479026 -0.00478337 0)
(0.00615621 -0.00477706 0)
(0.00752015 -0.00476928 0)
(0.00888172 -0.0047602 0)
(0.0102406 -0.00475001 0)
(0.0115964 -0.00473892 0)
(0.0129491 -0.00472714 0)
(0.0142984 -0.0047149 0)
(0.0156443 -0.00470243 0)
(0.0169867 -0.00468997 0)
(0.0183257 -0.00467772 0)
(0.0196614 -0.00466588 0)
(0.0209939 -0.00465463 0)
(0.0223233 -0.0046441 0)
(0.02365 -0.00463439 0)
(0.024974 -0.00462557 0)
(0.0262958 -0.00461764 0)
(0.0276154 -0.00461059 0)
(0.0289331 -0.00460433 0)
(0.0302492 -0.00459877 0)
(0.0315636 -0.00459376 0)
(0.0328767 -0.00458911 0)
(0.0341884 -0.00458464 0)
(0.0354987 -0.00458013 0)
(0.0368077 -0.00457537 0)
(0.0381151 -0.00457013 0)
(0.0394209 -0.00456423 0)
(0.0407247 -0.00455747 0)
(0.0420265 -0.00454969 0)
(0.0433259 -0.00454076 0)
(0.0446225 -0.00453057 0)
(0.045916 -0.00451907 0)
(0.0472061 -0.0045062 0)
(0.0484924 -0.00449198 0)
(0.0497744 -0.00447643 0)
(0.0510519 -0.00445959 0)
(0.0523244 -0.00444154 0)
(0.0535917 -0.00442238 0)
(0.0548533 -0.00440222 0)
(0.0561091 -0.00438117 0)
(0.0573587 -0.00435936 0)
(0.058602 -0.00433693 0)
(0.0598388 -0.004314 0)
(0.0610689 -0.00429071 0)
(0.0622924 -0.00426717 0)
(0.0635091 -0.00424349 0)
(0.0647189 -0.00421977 0)
(0.0659221 -0.00419608 0)
(0.0671185 -0.00417248 0)
(0.0683081 -0.00414899 0)
(0.0694912 -0.00412561 0)
(0.0706676 -0.00410231 0)
(0.0718374 -0.004079 0)
(0.0730005 -0.0040556 0)
(0.074157 -0.00403195 0)
(0.0753066 -0.0040079 0)
(0.0764493 -0.00398325 0)
(0.0775847 -0.00395779 0)
(0.0787127 -0.0039313 0)
(0.0798328 -0.00390355 0)
(0.0809446 -0.00387433 0)
(0.0820477 -0.00384343 0)
(0.0831416 -0.00381066 0)
(0.0842258 -0.00377585 0)
(0.0852995 -0.00373889 0)
(0.0863624 -0.00369968 0)
(0.0874136 -0.00365816 0)
(0.0884527 -0.00361431 0)
(0.0894789 -0.00356815 0)
(0.0904917 -0.00351975 0)
(0.0914904 -0.00346917 0)
(0.0924746 -0.00341654 0)
(0.0934436 -0.003362 0)
(0.0943969 -0.00330571 0)
(0.0953342 -0.00324785 0)
(0.0962549 -0.00318859 0)
(0.0971587 -0.00312814 0)
(0.0980453 -0.00306668 0)
(0.0989144 -0.0030044 0)
(0.0997659 -0.0029415 0)
(0.100599 -0.00287814 0)
(0.101415 -0.00281449 0)
(0.102212 -0.00275069 0)
(0.102991 -0.00268688 0)
(0.103753 -0.00262317 0)
(0.104495 -0.00255966 0)
(0.10522 -0.00249642 0)
(0.105927 -0.00243351 0)
(0.106616 -0.00237098 0)
(0.107287 -0.00230884 0)
(0.10794 -0.00224711 0)
(0.108575 -0.00218576 0)
(0.109193 -0.00212477 0)
(0.109794 -0.0020641 0)
(0.110377 -0.00200368 0)
(0.110943 -0.00194345 0)
(0.111491 -0.00188334 0)
(0.112023 -0.00182325 0)
(0.112536 -0.0017631 0)
(0.113033 -0.0017028 0)
(0.113512 -0.00164226 0)
(0.113974 -0.00158141 0)
(0.114418 -0.00152015 0)
(0.114844 -0.00145844 0)
(0.115253 -0.0013962 0)
(0.115644 -0.0013334 0)
(0.116016 -0.00127001 0)
(0.116371 -0.00120601 0)
(0.116707 -0.00114139 0)
(0.117024 -0.00107617 0)
(0.117323 -0.00101037 0)
(0.117602 -0.000944029 0)
(0.117863 -0.000877174 0)
(0.118104 -0.000809852 0)
(0.118326 -0.000742128 0)
(0.118529 -0.000674064 0)
(0.118711 -0.000605694 0)
(0.118874 -0.000537048 0)
(0.119016 -0.000468179 0)
(0.119138 -0.000399151 0)
(0.11924 -0.000329991 0)
(0.119321 -0.00026069 0)
(0.119381 -0.000191238 0)
(0.119421 -0.000121656 0)
(0.119441 -5.19584e-05 0)
(0.11944 1.78906e-05 0)
(0.119419 8.79319e-05 0)
(0.119377 0.00015815 0)
(0.119315 0.000228512 0)
(0.119233 0.000299075 0)
(0.119132 0.000369971 0)
(0.119011 0.000441257 0)
(0.118871 0.000512849 0)
(0.118711 0.000584625 0)
(0.118533 0.00065651 0)
(0.118336 0.000728444 0)
(0.11812 0.000800326 0)
(0.117885 0.000872009 0)
(0.117632 0.000943321 0)
(0.117358 0.00101408 0)
(0.117065 0.00108416 0)
(0.116752 0.00115343 0)
(0.116418 0.00122174 0)
(0.116062 0.00128893 0)
(0.115685 0.001355 0)
(0.115288 0.00142017 0)
(0.11487 0.00148477 0)
(0.114433 0.00154914 0)
(0.113977 0.00161353 0)
(0.113504 0.00167798 0)
(0.113014 0.00174239 0)
(0.112509 0.00180658 0)
(0.111988 0.00187037 0)
(0.111452 0.00193358 0)
(0.110901 0.00199585 0)
(0.110334 0.00205662 0)
(0.109749 0.00211522 0)
(0.109146 0.00217116 0)
(0.108524 0.00222444 0)
(0.107884 0.00227562 0)
(0.107225 0.00232575 0)
(0.10655 0.00237612 0)
(0.105859 0.00242789 0)
(0.105152 0.0024818 0)
(0.10443 0.00253814 0)
(0.103694 0.00259681 0)
(0.102943 0.00265744 0)
(0.102175 0.00271948 0)
(0.101391 0.00278216 0)
(0.100588 0.00284457 0)
(0.0997663 0.00290591 0)
(0.0989256 0.00296573 0)
(0.0980662 0.00302404 0)
(0.0971886 0.00308121 0)
(0.0962935 0.00313769 0)
(0.0953814 0.00319376 0)
(0.0944522 0.00324937 0)
(0.0935057 0.00330441 0)
(0.092542 0.00335892 0)
(0.0915613 0.00341333 0)
(0.0905642 0.00346834 0)
(0.0895517 0.00352457 0)
(0.0885246 0.00358218 0)
(0.0874835 0.0036407 0)
(0.0864292 0.00369902 0)
(0.085362 0.00375571 0)
(0.0842824 0.00380927 0)
(0.083191 0.0038584 0)
(0.0820883 0.00390213 0)
(0.0809753 0.00393993 0)
(0.0798531 0.00397175 0)
(0.0787229 0.00399804 0)
(0.0775859 0.00401951 0)
(0.0764432 0.00403697 0)
(0.0752954 0.00405122 0)
(0.074143 0.00406298 0)
(0.0729861 0.00407288 0)
(0.0718248 0.00408163 0)
(0.0706594 0.00409014 0)
(0.0694901 0.00409947 0)
(0.0683174 0.00411075 0)
(0.0671413 0.00412488 0)
(0.0659617 0.00414231 0)
(0.0647779 0.00416288 0)
(0.0635887 0.00418593 0)
(0.0623928 0.00421068 0)
(0.0611891 0.00423647 0)
(0.0599763 0.00426286 0)
(0.0587537 0.00428969 0)
(0.0575206 0.00431708 0)
(0.0562768 0.00434541 0)
(0.0550221 0.00437508 0)
(0.0537564 0.00440627 0)
(0.05248 0.00443883 0)
(0.0511931 0.00447238 0)
(0.0498967 0.00450644 0)
(0.0485918 0.00454052 0)
(0.0472799 0.004574 0)
(0.0459623 0.00460596 0)
(0.0446406 0.00463522 0)
(0.0433158 0.00466046 0)
(0.0419891 0.00468055 0)
(0.0406615 0.00469463 0)
(0.0393339 0.0047021 0)
(0.0380069 0.00470256 0)
(0.0366808 0.00469589 0)
(0.0353564 0.00468246 0)
(0.0340342 0.00466319 0)
(0.0327148 0.00463952 0)
(0.0313986 0.00461316 0)
(0.0300857 0.00458592 0)
(0.0287755 0.00455943 0)
(0.0274673 0.00453512 0)
(0.0261605 0.00451437 0)
(0.0248544 0.00449868 0)
(0.0235488 0.00448973 0)
(0.0222432 0.00448913 0)
(0.0209373 0.00449791 0)
(0.01963 0.00451607 0)
(0.0183203 0.00454257 0)
(0.0170067 0.00457559 0)
(0.0156879 0.00461308 0)
(0.014363 0.00465312 0)
(0.0130313 0.00469404 0)
(0.0116919 0.00473427 0)
(0.010344 0.00477217 0)
(0.0089872 0.0048059 0)
(0.00762128 0.00483367 0)
(0.00624692 0.0048541 0)
(0.0048656 0.00486664 0)
(0.00347926 0.00487195 0)
(0.00208964 0.00487214 0)
(0.000697451 0.00486977 0)
(0.000684774 -0.00616175 0)
(0.00205408 -0.00615998 0)
(0.00342274 -0.00615618 0)
(0.00479029 -0.00615013 0)
(0.00615628 -0.00614203 0)
(0.00752031 -0.00613208 0)
(0.00888201 -0.00612048 0)
(0.0102411 -0.00610748 0)
(0.0115972 -0.00609333 0)
(0.0129503 -0.00607832 0)
(0.0143001 -0.00606273 0)
(0.0156466 -0.00604686 0)
(0.0169897 -0.006031 0)
(0.0183295 -0.00601542 0)
(0.0196661 -0.00600036 0)
(0.0209996 -0.00598605 0)
(0.0223302 -0.00597265 0)
(0.023658 -0.00596028 0)
(0.0249833 -0.00594902 0)
(0.0263063 -0.00593888 0)
(0.0276272 -0.00592983 0)
(0.0289462 -0.00592178 0)
(0.0302635 -0.00591458 0)
(0.0315792 -0.00590805 0)
(0.0328933 -0.00590197 0)
(0.034206 -0.0058961 0)
(0.0355173 -0.00589017 0)
(0.0368271 -0.00588391 0)
(0.0381353 -0.00587706 0)
(0.0394418 -0.00586936 0)
(0.0407463 -0.00586058 0)
(0.0420487 -0.00585052 0)
(0.0433487 -0.00583901 0)
(0.0446459 -0.00582592 0)
(0.0459401 -0.00581115 0)
(0.0472308 -0.00579466 0)
(0.0485177 -0.00577644 0)
(0.0498004 -0.0057565 0)
(0.0510786 -0.00573492 0)
(0.0523519 -0.00571177 0)
(0.0536199 -0.00568718 0)
(0.0548824 -0.00566129 0)
(0.0561389 -0.00563424 0)
(0.0573894 -0.0056062 0)
(0.0586335 -0.00557734 0)
(0.059871 -0.00554784 0)
(0.061102 -0.00551786 0)
(0.0623262 -0.00548758 0)
(0.0635436 -0.00545713 0)
(0.0647543 -0.00542663 0)
(0.0659583 -0.0053962 0)
(0.0671555 -0.0053659 0)
(0.0683461 -0.00533575 0)
(0.0695301 -0.00530575 0)
(0.0707075 -0.00527583 0)
(0.0718783 -0.00524591 0)
(0.0730424 -0.00521583 0)
(0.0741999 -0.00518542 0)
(0.0753504 -0.00515445 0)
(0.076494 -0.00512267 0)
(0.0776302 -0.00508981 0)
(0.0787588 -0.0050556 0)
(0.0798795 -0.00501975 0)
(0.0809917 -0.00498198 0)
(0.0820951 -0.00494205 0)
(0.0831891 -0.00489973 0)
(0.0842733 -0.00485482 0)
(0.085347 -0.00480717 0)
(0.0864096 -0.00475667 0)
(0.0874606 -0.00470324 0)
(0.0884994 -0.00464688 0)
(0.0895254 -0.00458761 0)
(0.090538 -0.0045255 0)
(0.0915366 -0.00446065 0)
(0.0925207 -0.0043932 0)
(0.0934897 -0.00432333 0)
(0.0944433 -0.00425124 0)
(0.0953809 -0.00417714 0)
(0.0963021 -0.00410125 0)
(0.0972067 -0.00402382 0)
(0.0980942 -0.00394509 0)
(0.0989644 -0.0038653 0)
(0.0998171 -0.00378466 0)
(0.100652 -0.00370341 0)
(0.101469 -0.00362175 0)
(0.102268 -0.00353987 0)
(0.103049 -0.00345793 0)
(0.103812 -0.00337609 0)
(0.104557 -0.00329448 0)
(0.105284 -0.00321318 0)
(0.105994 -0.0031323 0)
(0.106685 -0.00305187 0)
(0.107358 -0.00297194 0)
(0.108014 -0.0028925 0)
(0.108652 -0.00281354 0)
(0.109272 -0.00273502 0)
(0.109875 -0.00265689 0)
(0.110461 -0.00257907 0)
(0.111029 -0.00250148 0)
(0.111579 -0.002424 0)
(0.112112 -0.00234655 0)
(0.112628 -0.00226899 0)
(0.113126 -0.00219124 0)
(0.113606 -0.00211318 0)
(0.114069 -0.00203471 0)
(0.114514 -0.00195575 0)
(0.114941 -0.00187621 0)
(0.115349 -0.00179603 0)
(0.11574 -0.00171515 0)
(0.116113 -0.00163354 0)
(0.116467 -0.00155118 0)
(0.116802 -0.00146805 0)
(0.117119 -0.00138415 0)
(0.117417 -0.0012995 0)
(0.117696 -0.00121413 0)
(0.117956 -0.00112806 0)
(0.118196 -0.00104132 0)
(0.118417 -0.000953978 0)
(0.118619 -0.000866099 0)
(0.1188 -0.000777735 0)
(0.118961 -0.000688914 0)
(0.119102 -0.000599692 0)
(0.119223 -0.00051016 0)
(0.119323 -0.000420391 0)